/*--------------------------------*- C++ -*----------------------------------*\
| =========                 |                                                 |
| \\      /  F ield         | OpenFOAM: The Open Source CFD Toolbox           |
|  \\    /   O peration     | Version:  2506                                  |
|   \\  /    A nd           | Website:  www.openfoam.com                      |
|    \\/     M anipulation  |                                                 |
\*---------------------------------------------------------------------------*/
FoamFile
{
    version     2.0;
    format      ascii;
    arch        "LSB;label=32;scalar=64";
    class       volScalarField;
    location    "113.2";
    object      T;
}
// * * * * * * * * * * * * * * * * * * * * * * * * * * * * * * * * * * * * * //

dimensions      [0 0 0 1 0 0 0];

internalField   nonuniform List<scalar> 
200
(
273.164
273.189
273.208
273.221
273.229
273.235
273.239
273.242
273.246
273.249
273.252
273.255
273.259
273.263
273.268
273.278
273.302
273.364
273.517
273.854
273.174
273.216
273.245
273.263
273.272
273.277
273.28
273.281
273.283
273.285
273.287
273.29
273.293
273.295
273.298
273.303
273.323
273.383
273.542
273.881
273.187
273.252
273.298
273.325
273.338
273.343
273.344
273.343
273.342
273.342
273.343
273.344
273.344
273.343
273.341
273.344
273.362
273.423
273.586
273.913
273.201
273.291
273.354
273.39
273.406
273.411
273.411
273.408
273.406
273.403
273.402
273.4
273.397
273.392
273.386
273.385
273.403
273.469
273.635
273.944
273.215
273.33
273.409
273.453
273.471
273.476
273.473
273.469
273.464
273.461
273.458
273.454
273.447
273.439
273.43
273.428
273.448
273.52
273.688
273.971
273.229
273.37
273.464
273.513
273.531
273.534
273.53
273.525
273.521
273.518
273.515
273.51
273.502
273.491
273.483
273.485
273.511
273.587
273.744
273.993
273.245
273.413
273.519
273.569
273.586
273.589
273.587
273.585
273.584
273.584
273.583
273.58
273.574
273.567
273.563
273.568
273.597
273.667
273.803
274.016
273.266
273.457
273.569
273.621
273.641
273.649
273.654
273.658
273.663
273.667
273.671
273.672
273.672
273.671
273.671
273.679
273.705
273.763
273.871
274.041
273.289
273.498
273.614
273.67
273.698
273.714
273.726
273.736
273.746
273.756
273.765
273.774
273.781
273.788
273.795
273.806
273.828
273.87
273.947
274.069
273.304
273.519
273.636
273.695
273.727
273.747
273.763
273.778
273.793
273.808
273.822
273.838
273.853
273.869
273.886
273.905
273.928
273.963
274.016
274.096
)
;

boundaryField
{
    leftWall
    {
        type            fixedValue;
        value           uniform 273.15;
    }
    rightWall
    {
        type            customNeumannDirichletCoupledBoundary;
        refValue        nonuniform List<scalar> 10(274.13 274.131 274.133 274.135 274.137 274.138 274.14 274.142 274.143 274.144);
        refGradient     uniform 0;
        valueFraction   uniform 1;
        source          uniform 0;
        value           nonuniform List<scalar> 10(274.13 274.131 274.133 274.135 274.137 274.138 274.14 274.142 274.143 274.144);
        kappaMethod     fluidThermo;
    }
    topWall
    {
        type            zeroGradient;
    }
    bottomWall
    {
        type            zeroGradient;
    }
    frontAndBackPlanes
    {
        type            empty;
    }
}


// ************************************************************************* //
