/*--------------------------------*- C++ -*----------------------------------*\
| =========                 |                                                 |
| \\      /  F ield         | OpenFOAM: The Open Source CFD Toolbox           |
|  \\    /   O peration     | Version:  2506                                  |
|   \\  /    A nd           | Website:  www.openfoam.com                      |
|    \\/     M anipulation  |                                                 |
\*---------------------------------------------------------------------------*/
FoamFile
{
    version     2.0;
    format      ascii;
    arch        "LSB;label=32;scalar=64";
    class       surfaceScalarField;
    location    "52";
    object      phi;
}
// * * * * * * * * * * * * * * * * * * * * * * * * * * * * * * * * * * * * * //

dimensions      [1 0 -1 0 0 0 0];

oriented        oriented;

internalField   nonuniform List<scalar> 
370
(
2.34817e-05
-0.000103764
0.000218721
-0.000195195
0.000441132
-0.000222343
0.000655119
-0.000213903
0.000844824
-0.000189612
0.00101046
-0.000165538
0.00116159
-0.000151019
0.00131184
-0.00015015
0.00147603
-0.000164072
0.00166856
-0.000192422
0.00190241
-0.000233726
0.00218719
-0.000284656
0.00252487
-0.000337541
0.00290157
-0.000376565
0.00327347
-0.000371764
0.00354265
-0.000269041
0.00350975
3.3036e-05
0.00295241
0.000557481
0.00162961
0.00132293
0.00162969
0.000174703
-0.000278434
0.000540097
-0.000560494
0.000964174
-0.00064628
0.00137207
-0.000621629
0.00173478
-0.000552139
0.0020499
-0.000480474
0.00232877
-0.0004297
0.00258807
-0.00040925
0.00284458
-0.000420388
0.00311199
-0.000459627
0.0033981
-0.000519625
0.00370103
-0.000587366
0.00400312
-0.000639409
0.00426122
-0.00063443
0.00439379
-0.000504103
0.00427202
-0.000147047
0.00374461
0.000560672
0.00263591
0.0016664
0.00108637
0.00287266
0.00271616
0.000245237
-0.000523608
0.000703379
-0.00101846
0.00120629
-0.00114894
0.00166865
-0.00108369
0.0020617
-0.000944876
0.00238717
-0.000805621
0.00265958
-0.000701787
0.00289614
-0.000645494
0.0031116
-0.000635526
0.00331567
-0.000663366
0.00351113
-0.000714747
0.0036909
-0.000766793
0.00383285
-0.000781008
0.00389232
-0.000693546
0.0037957
-0.000407137
0.00344452
0.000204469
0.00275683
0.00124868
0.00173565
0.00268788
0.000617031
0.00399155
0.00333333
0.000274891
-0.000798402
0.000756308
-0.00149961
0.00124825
-0.00164051
0.00166667
-0.00150167
0.00199319
-0.00127094
0.00223969
-0.00105168
0.00242693
-0.00088858
0.00257404
-0.000792168
0.00269488
-0.000755919
0.00279744
-0.000765485
0.00288386
-0.000800722
0.00294893
-0.000831394
0.00297607
-0.000807672
0.00293147
-0.000648476
0.00276058
-0.000235786
0.00239742
0.000568059
0.0018068
0.00183972
0.00104062
0.00345443
0.000313807
0.00471869
0.00364729
0.000273735
-0.00107201
0.000708514
-0.00193404
0.00110666
-0.00203818
0.00140193
-0.00179641
0.00159571
-0.00146417
0.0017135
-0.00116892
0.00178193
-0.000956476
0.00182054
-0.000830258
0.00184128
-0.000776127
0.0018505
-0.000774166
0.00185045
-0.00080013
0.00183858
-0.000818958
0.00180437
-0.000772875
0.00172522
-0.000568752
0.00156479
-7.47891e-05
0.00128248
0.000850901
0.000873399
0.0022493
0.000412557
0.00391573
6.88277e-05
0.00506278
0.00371628
0.000228988
-0.00130084
0.000528553
-0.0022332
0.000738065
-0.00224713
0.000831778
-0.00188951
0.000839087
-0.00147087
0.000797259
-0.0011265
0.000733039
-0.000891671
0.000661248
-0.000757885
0.00058888
-0.00070317
0.00051897
-0.000703651
0.000451927
-0.000732461
0.000384394
-0.000750775
0.000307388
-0.0006952
0.000206669
-0.000467359
6.86893e-05
6.38511e-05
-9.64589e-05
0.00101668
-0.000249407
0.00240283
-0.00031067
0.00397751
-0.000202874
0.00495537
0.00351356
0.000112611
-0.00141328
0.000147568
-0.00226769
4.92268e-05
-0.00214817
-0.000137859
-0.00170177
-0.000359274
-0.00124882
-0.000579215
-0.000905938
-0.000782086
-0.00068819
-0.000964517
-0.00057484
-0.00112813
-0.000538929
-0.00127601
-0.000555127
-0.00141211
-0.000595696
-0.00154124
-0.000620967
-0.00166658
-0.000569159
-0.0017821
-0.000351132
-0.00185751
0.000139959
-0.00182693
0.000986767
-0.00161171
0.00218822
-0.00115467
0.00352099
-0.000504634
0.00430572
0.00300908
-0.000125109
-0.00128796
-0.000511597
-0.00188068
-0.00102378
-0.00163534
-0.0015361
-0.0011888
-0.00198731
-0.000796972
-0.00236476
-0.000527877
-0.00267824
-0.00037411
-0.00294427
-0.000308202
-0.00317878
-0.000303804
-0.00339448
-0.000338812
-0.0035993
-0.000390256
-0.00379281
-0.000426823
-0.00395885
-0.00040248
-0.00405482
-0.000254512
-0.00400352
8.93006e-05
-0.00370127
0.000685132
-0.00305449
0.00154201
-0.00203843
0.00250542
-0.000823172
0.00309082
0.00218606
-0.00049444
-0.000793282
-0.00139952
-0.000975035
-0.00229896
-0.000735236
-0.00302581
-0.000461298
-0.0035635
-0.000258679
-0.00395255
-0.000138261
-0.00424432
-8.1794e-05
-0.00448341
-6.85904e-05
-0.00470308
-8.36109e-05
-0.0049251
-0.000116268
-0.00515849
-0.000156352
-0.00539435
-0.000190452
-0.00559716
-0.000199167
-0.00569558
-0.00015558
-0.00558317
-2.26044e-05
-0.00512182
0.00022427
-0.00419112
0.000611774
-0.00276821
0.00108292
-0.0010962
0.00141911
0.00108998
-0.000793011
-0.00176745
-0.00250201
-0.00296266
-0.00322075
-0.00335849
-0.0034398
-0.00350795
-0.00359113
-0.00370699
-0.00386295
-0.00405302
-0.00425182
-0.00440704
-0.00442929
-0.00420469
-0.00359259
-0.0025094
-0.00109007
)
;

boundaryField
{
    leftWall
    {
        type            calculated;
        value           nonuniform List<scalar> 10(0 0 0 2.71051e-20 5.42101e-20 0 0 0 0 -4.33681e-19);
    }
    rightWall
    {
        type            calculated;
        value           uniform 0;
    }
    topWall
    {
        type            calculated;
        value           uniform 0;
    }
    bottomWall
    {
        type            calculated;
        value           uniform 0;
    }
    frontAndBackPlanes
    {
        type            empty;
    }
}


// ************************************************************************* //
