/*--------------------------------*- C++ -*----------------------------------*\
| =========                 |                                                 |
| \\      /  F ield         | OpenFOAM: The Open Source CFD Toolbox           |
|  \\    /   O peration     | Version:  2506                                  |
|   \\  /    A nd           | Website:  www.openfoam.com                      |
|    \\/     M anipulation  |                                                 |
\*---------------------------------------------------------------------------*/
FoamFile
{
    version     2.0;
    format      ascii;
    arch        "LSB;label=32;scalar=64";
    class       surfaceScalarField;
    location    "101.6";
    object      phi;
}
// * * * * * * * * * * * * * * * * * * * * * * * * * * * * * * * * * * * * * //

dimensions      [1 0 -1 0 0 0 0];

oriented        oriented;

internalField   nonuniform List<scalar> 
370
(
0.000255313
-0.000299047
0.000707704
-0.000452317
0.00111001
-0.000402193
0.00139718
-0.000287039
0.0015737
-0.000176372
0.00167228
-9.84229e-05
0.00173068
-5.82246e-05
0.00178114
-5.02819e-05
0.00184771
-6.63819e-05
0.00194703
-9.9115e-05
0.00209021
-0.000142986
0.00228411
-0.000193684
0.00252988
-0.000245564
0.00281669
-0.000286582
0.00310752
-0.000290609
0.00331347
-0.000205722
0.00325494
5.87649e-05
0.00271584
0.000539329
0.00148234
0.0012337
0.00148245
0.000389586
-0.000688594
0.00105507
-0.00111769
0.0017023
-0.00104929
0.00221432
-0.000798882
0.00257559
-0.000537454
0.00281594
-0.000338578
0.00297838
-0.000220461
0.00310293
-0.000174628
0.00321997
-0.000183215
0.00334896
-0.000227899
0.00349909
-0.000292901
0.00366909
-0.000363459
0.00384402
-0.000420269
0.00398777
-0.000430107
0.00403095
-0.000333554
0.00386235
-3.68836e-05
0.00334224
0.000579118
0.00232563
0.00155618
0.000943898
0.00261564
0.00242645
0.000395308
-0.00108385
0.0010476
-0.00176984
0.00167718
-0.00167868
0.0021777
-0.00129918
0.00253708
-0.000896599
0.00278265
-0.000583905
0.0029509
-0.00038847
0.00307364
-0.000297121
0.00317328
-0.000282619
0.00326252
-0.00031689
0.00334496
-0.0003751
0.00341475
-0.000432999
0.00345351
-0.000458781
0.00342483
-0.000401175
0.00326958
-0.000178042
0.00290855
0.000324401
0.00228367
0.00120426
0.00140407
0.00243604
0.00047847
0.00354144
0.00290502
0.000353772
-0.00143756
0.000903375
-0.00231929
0.00140097
-0.00217605
0.00177159
-0.00166953
0.00202196
-0.0011467
0.00218461
-0.000746278
0.00229132
-0.000494909
0.00236439
-0.00036992
0.00241639
-0.000334346
0.00245275
-0.000352979
0.00247382
-0.000395908
0.00247462
-0.000433527
0.0024417
-0.000425593
0.00234854
-0.000307731
0.00215463
1.61424e-05
0.00181802
0.000661295
0.00132146
0.00170109
0.000718064
0.0030397
0.000187476
0.00407224
0.00309259
0.000286248
-0.00172375
0.000675103
-0.00270796
0.000974993
-0.00247569
0.00115799
-0.00185225
0.00125551
-0.00124393
0.00130472
-0.000795199
0.00133015
-0.000520057
0.00134297
-0.000382454
0.00134624
-0.000337329
0.00133998
-0.000346444
0.00132346
-0.000379109
0.00129394
-0.000403725
0.00124301
-0.000374381
0.00115314
-0.00021758
0.000998257
0.000171315
0.000762214
0.000897632
0.000454812
0.00200878
0.000148243
0.00334653
-2.62424e-05
0.00424694
0.00306643
0.000188249
-0.00191193
0.000353326
-0.00287285
0.000397977
-0.00252008
0.000357042
-0.00181102
0.000284215
-0.0011708
0.000212369
-0.000723062
0.000152101
-0.000459504
0.000101833
-0.000331906
5.69902e-05
-0.000292209
1.44369e-05
-0.000303614
-2.75935e-05
-0.000336803
-7.20804e-05
-0.000358961
-0.000125646
-0.000320535
-0.000197656
-0.000145283
-0.000292212
0.000266167
-0.000396638
0.00100236
-0.000468112
0.00208055
-0.00043294
0.00331163
-0.000237874
0.00405208
0.00282864
2.53992e-05
-0.00193725
-0.000121123
-0.00272611
-0.000393576
-0.00224736
-0.000688203
-0.00151611
-0.000942664
-0.000916056
-0.00114076
-0.000524688
-0.00129065
-0.000309335
-0.00140662
-0.000215664
-0.00150029
-0.000198274
-0.00157907
-0.000224563
-0.00164795
-0.000267653
-0.00171092
-0.000295723
-0.00176932
-0.000261865
-0.00181562
-9.87075e-05
-0.00182152
0.000272356
-0.0017387
0.000919825
-0.00150168
0.0018438
-0.00105846
0.00286865
-0.000454827
0.00344863
0.00237389
-0.000241031
-0.00169613
-0.000819115
-0.00214781
-0.00146376
-0.00160244
-0.00201495
-0.000964639
-0.0024292
-0.000501527
-0.00272273
-0.000230892
-0.00293005
-0.000101751
-0.00308172
-6.37401e-05
-0.00320057
-7.91651e-05
-0.00330226
-0.000122622
-0.00339494
-0.000174728
-0.00347851
-0.0002119
-0.0035398
-0.000200327
-0.00354479
-9.34684e-05
-0.00343471
0.000162524
-0.00313129
0.000616648
-0.00255889
0.00127165
-0.00169511
0.00200508
-0.000679556
0.00243324
0.00169439
-0.00065525
-0.00104078
-0.00173563
-0.00106721
-0.00268139
-0.000656413
-0.00334008
-0.000305677
-0.00374672
-9.46126e-05
-0.00397806
7.05257e-07
-0.0041187
3.91324e-05
-0.00421358
3.1377e-05
-0.00429402
1.50106e-06
-0.00438283
-3.35867e-05
-0.00448467
-7.26758e-05
-0.00459203
-0.00010433
-0.00467741
-0.000114746
-0.00468637
-8.43064e-05
-0.004539
1.53507e-05
-0.00412496
0.000202798
-0.00335101
0.000497879
-0.00219922
0.000853459
-0.000865125
0.00109927
0.000829322
-0.00104067
-0.00210765
-0.0027638
-0.00306921
-0.00316356
-0.00316261
-0.00312325
-0.00309165
-0.00308995
-0.00312334
-0.00319583
-0.00329999
-0.00341457
-0.00349872
-0.00348323
-0.00328029
-0.00278228
-0.00192871
-0.000829358
)
;

boundaryField
{
    leftWall
    {
        type            calculated;
        value           nonuniform List<scalar> 10(-3.38813e-21 0 0 0 0 0 0 0 0 0);
    }
    rightWall
    {
        type            calculated;
        value           nonuniform List<scalar> 10(0 0 0 0 0 0 0 4.33681e-19 4.33681e-19 0);
    }
    topWall
    {
        type            calculated;
        value           uniform 0;
    }
    bottomWall
    {
        type            calculated;
        value           uniform 0;
    }
    frontAndBackPlanes
    {
        type            empty;
    }
}


// ************************************************************************* //
