/*--------------------------------*- C++ -*----------------------------------*\
| =========                 |                                                 |
| \\      /  F ield         | OpenFOAM: The Open Source CFD Toolbox           |
|  \\    /   O peration     | Version:  2506                                  |
|   \\  /    A nd           | Website:  www.openfoam.com                      |
|    \\/     M anipulation  |                                                 |
\*---------------------------------------------------------------------------*/
FoamFile
{
    version     2.0;
    format      ascii;
    arch        "LSB;label=32;scalar=64";
    class       volScalarField;
    location    "101.6";
    object      T;
}
// * * * * * * * * * * * * * * * * * * * * * * * * * * * * * * * * * * * * * //

dimensions      [0 0 0 1 0 0 0];

internalField   nonuniform List<scalar> 
200
(
273.162
273.183
273.198
273.209
273.216
273.22
273.223
273.226
273.228
273.23
273.233
273.236
273.239
273.243
273.248
273.257
273.28
273.342
273.498
273.844
273.17
273.206
273.232
273.247
273.255
273.259
273.261
273.262
273.264
273.265
273.267
273.27
273.272
273.274
273.276
273.281
273.301
273.361
273.523
273.871
273.182
273.24
273.281
273.304
273.316
273.321
273.322
273.321
273.32
273.32
273.321
273.321
273.321
273.32
273.318
273.321
273.338
273.4
273.567
273.904
273.195
273.277
273.334
273.366
273.382
273.387
273.386
273.384
273.381
273.379
273.378
273.376
273.372
273.367
273.361
273.36
273.378
273.445
273.616
273.935
273.209
273.314
273.387
273.428
273.445
273.449
273.447
273.443
273.439
273.436
273.433
273.429
273.422
273.413
273.404
273.402
273.422
273.496
273.669
273.963
273.223
273.353
273.441
273.487
273.505
273.508
273.504
273.5
273.496
273.493
273.49
273.485
273.477
273.466
273.457
273.458
273.485
273.563
273.725
273.986
273.238
273.394
273.495
273.543
273.561
273.564
273.562
273.561
273.56
273.56
273.559
273.556
273.549
273.542
273.537
273.543
273.572
273.645
273.787
274.009
273.258
273.438
273.545
273.596
273.616
273.625
273.63
273.635
273.64
273.645
273.649
273.65
273.65
273.649
273.649
273.657
273.684
273.744
273.857
274.035
273.28
273.478
273.59
273.646
273.674
273.691
273.704
273.715
273.726
273.737
273.746
273.755
273.763
273.771
273.778
273.789
273.811
273.856
273.936
274.065
273.295
273.499
273.612
273.671
273.704
273.725
273.743
273.759
273.774
273.79
273.806
273.822
273.839
273.856
273.873
273.892
273.917
273.953
274.009
274.093
)
;

boundaryField
{
    leftWall
    {
        type            fixedValue;
        value           uniform 273.15;
    }
    rightWall
    {
        type            customNeumannDirichletCoupledBoundary;
        refValue        nonuniform List<scalar> 10(274.129 274.13 274.132 274.134 274.136 274.138 274.14 274.141 274.143 274.144);
        refGradient     uniform 0;
        valueFraction   uniform 1;
        source          uniform 0;
        value           nonuniform List<scalar> 10(274.129 274.13 274.132 274.134 274.136 274.138 274.14 274.141 274.143 274.144);
        kappaMethod     fluidThermo;
    }
    topWall
    {
        type            zeroGradient;
    }
    bottomWall
    {
        type            zeroGradient;
    }
    frontAndBackPlanes
    {
        type            empty;
    }
}


// ************************************************************************* //
