/*--------------------------------*- C++ -*----------------------------------*\
| =========                 |                                                 |
| \\      /  F ield         | OpenFOAM: The Open Source CFD Toolbox           |
|  \\    /   O peration     | Version:  2506                                  |
|   \\  /    A nd           | Website:  www.openfoam.com                      |
|    \\/     M anipulation  |                                                 |
\*---------------------------------------------------------------------------*/
FoamFile
{
    version     2.0;
    format      ascii;
    arch        "LSB;label=32;scalar=64";
    class       volScalarField;
    location    "49";
    object      p_rgh;
}
// * * * * * * * * * * * * * * * * * * * * * * * * * * * * * * * * * * * * * //

dimensions      [1 -1 -2 0 0 0 0];

internalField   nonuniform List<scalar> 
200
(
100000
100000
100000
100000
100000
100000
100000
100000
100000
100000
100000
99999.9
99999.9
99999.8
99999.8
99999.6
99999.5
99999.2
99998.8
99998.2
100000
100000
100000
100000
100000
100000
100000
100000
100000
100000
99999.9
99999.9
99999.9
99999.8
99999.8
99999.7
99999.6
99999.3
99998.6
99997
100000
100000
100000
100000
99999.9
99999.9
99999.9
99999.9
99999.8
99999.8
99999.8
99999.8
99999.8
99999.8
99999.8
99999.8
99999.6
99999.1
99997.9
99995.3
100000
100000
99999.9
99999.7
99999.6
99999.6
99999.6
99999.6
99999.6
99999.6
99999.6
99999.6
99999.6
99999.7
99999.7
99999.7
99999.5
99998.8
99996.9
99993.4
100000
99999.9
99999.6
99999.4
99999.2
99999.1
99999.1
99999.1
99999.1
99999.2
99999.2
99999.3
99999.4
99999.5
99999.6
99999.6
99999.2
99998.2
99995.7
99991.3
100001
99999.8
99999.2
99998.8
99998.5
99998.4
99998.4
99998.4
99998.5
99998.5
99998.6
99998.7
99998.8
99999
99999.2
99999.1
99998.6
99997.2
99994.2
99989.3
100001
99999.6
99998.7
99998
99997.7
99997.5
99997.5
99997.4
99997.4
99997.4
99997.5
99997.6
99997.7
99997.9
99998
99997.9
99997.2
99995.6
99992.4
99987.3
100001
99999.3
99997.9
99997
99996.5
99996.3
99996.1
99995.9
99995.8
99995.7
99995.6
99995.6
99995.6
99995.6
99995.7
99995.5
99994.8
99993.3
99990.3
99985.5
100001
99998.9
99997.1
99995.9
99995.2
99994.6
99994.2
99993.9
99993.5
99993.2
99993
99992.7
99992.5
99992.4
99992.2
99992
99991.4
99990.2
99987.8
99983.7
100002
99998.7
99996.6
99995.2
99994.2
99993.5
99992.9
99992.4
99991.9
99991.4
99990.9
99990.5
99990
99989.6
99989.1
99988.7
99988
99987
99985.2
99982.3
)
;

boundaryField
{
    leftWall
    {
        type            fixedFluxPressure;
        gradient        nonuniform List<scalar> 10(0.0227512 0.322337 1.41735 3.92246 8.37814 15.2001 24.8288 38.4114 56.1796 71.7851);
        value           nonuniform List<scalar> 10(100000 100000 100000 100000 100001 100001 100001 100002 100003 100003);
    }
    rightWall
    {
        type            fixedFluxPressure;
        gradient        nonuniform List<scalar> 10(-17.4782 -48.8419 -73.7765 -93.2082 -107.052 -116.55 -121.35 -117.889 -102.206 -76.8848);
        value           nonuniform List<scalar> 10(99997.8 99995.8 99993.5 99991 99988.7 99986.4 99984.3 99982.5 99981.2 99980.4);
    }
    topWall
    {
        type            fixedFluxPressure;
        gradient        uniform 0;
        value           nonuniform List<scalar> 
20
(
100000
100000
100000
100000
100000
100000
100000
100000
100000
100000
100000
99999.9
99999.9
99999.8
99999.8
99999.6
99999.5
99999.2
99998.8
99998.2
)
;
    }
    bottomWall
    {
        type            fixedFluxPressure;
        gradient        uniform 0;
        value           nonuniform List<scalar> 
20
(
100002
99998.7
99996.6
99995.2
99994.2
99993.5
99992.9
99992.4
99991.9
99991.4
99990.9
99990.5
99990
99989.6
99989.1
99988.7
99988
99987
99985.2
99982.3
)
;
    }
    frontAndBackPlanes
    {
        type            empty;
    }
}


// ************************************************************************* //
