/*--------------------------------*- C++ -*----------------------------------*\
| =========                 |                                                 |
| \\      /  F ield         | OpenFOAM: The Open Source CFD Toolbox           |
|  \\    /   O peration     | Version:  2506                                  |
|   \\  /    A nd           | Website:  www.openfoam.com                      |
|    \\/     M anipulation  |                                                 |
\*---------------------------------------------------------------------------*/
FoamFile
{
    version     2.0;
    format      ascii;
    arch        "LSB;label=32;scalar=64";
    class       surfaceScalarField;
    location    "49";
    object      phi;
}
// * * * * * * * * * * * * * * * * * * * * * * * * * * * * * * * * * * * * * //

dimensions      [1 0 -1 0 0 0 0];

oriented        oriented;

internalField   nonuniform List<scalar> 
370
(
1.03677e-05
-9.37151e-05
0.000191675
-0.00018127
0.000406204
-0.000214471
0.000620139
-0.000213863
0.000815738
-0.000195517
0.000990543
-0.000174719
0.00115189
-0.00016126
0.00131205
-0.000160061
0.00148516
-0.000173016
0.0016855
-0.000200231
0.00192597
-0.000240373
0.00221606
-0.00028998
0.00255731
-0.000341129
0.00293524
-0.000377821
0.00330561
-0.000370245
0.00357045
-0.00026473
0.00353228
3.82926e-05
0.00296793
0.000564468
0.00163746
0.00133057
0.00163753
0.000160788
-0.000254473
0.000511047
-0.000531444
0.000928502
-0.000631797
0.00134
-0.000625202
0.0017141
-0.000569455
0.00204492
-0.000505359
0.00234084
-0.000456998
0.00261665
-0.00043569
0.00288821
-0.00044439
0.00316882
-0.000480645
0.00346602
-0.000537378
0.00377745
-0.000601198
0.00408454
-0.000648012
0.00434304
-0.000636108
0.0044706
-0.000497591
0.00433855
-0.000132471
0.00379541
0.000581627
0.00266865
0.00169143
0.00109973
0.00289967
0.00273737
0.000234577
-0.00048899
0.000683736
-0.000980433
0.00118711
-0.00113492
0.00165865
-0.00109645
0.00206623
-0.000976723
0.0024083
-0.00084711
0.00269722
-0.000745603
0.0029492
-0.000687352
0.00317874
-0.000673609
0.00339559
-0.000697178
0.00360242
-0.000743877
0.00379147
-0.000789908
0.00393924
-0.000795433
0.00399925
-0.000695774
0.00389634
-0.000394351
0.00353149
0.000232692
0.00282367
0.00128974
0.00177774
0.00273766
0.000633526
0.00404414
0.00337103
0.000268318
-0.00075721
0.000748119
-0.00145996
0.00124687
-0.00163329
0.00167745
-0.0015266
0.00201759
-0.0013164
0.00227674
-0.0011058
0.00247492
-0.000943334
0.0026317
-0.000843685
0.00276178
-0.000803241
0.00287386
-0.000808811
0.00297017
-0.00083973
0.0030447
-0.000863963
0.00307912
-0.000829383
0.0030372
-0.000653392
0.00286213
-0.00021883
0.00248676
0.000608483
0.00187604
0.00190086
0.00108398
0.00353009
0.000330349
0.0047981
0.00370154
0.000271408
-0.00102848
0.000710615
-0.0018988
0.00111896
-0.00204112
0.00142527
-0.00183234
0.00162732
-0.00151788
0.0017498
-0.00122771
0.00182053
-0.00101351
0.00186097
-0.000883585
0.00188473
-0.000826463
0.00189912
-0.000822651
0.00190643
-0.000846466
0.00190319
-0.000860137
0.0018772
-0.000802801
0.00180357
-0.000579175
0.00164325
-5.79502e-05
0.00135453
0.000897724
0.00093086
0.00232502
0.000448702
0.00401271
8.19272e-05
0.00516525
0.00378363
0.0002303
-0.00125861
0.000538344
-0.0022064
0.000758236
-0.00226041
0.000858524
-0.00193198
0.000866062
-0.00152477
0.000819715
-0.00118074
0.000749232
-0.000942425
0.000672112
-0.000805863
0.000596943
-0.000750681
0.000527229
-0.000752301
0.000463025
-0.000781599
0.000400197
-0.000796617
0.000328846
-0.000730739
0.000233736
-0.000483355
0.000100099
7.63598e-05
-6.44817e-05
0.00106294
-0.000221955
0.00248308
-0.00029285
0.00408412
-0.000196487
0.00506928
0.00358731
0.000116977
-0.00137539
0.000162514
-0.00225142
7.20074e-05
-0.00216923
-0.000115282
-0.00174399
-0.000344379
-0.001295
-0.00057608
-0.000948398
-0.000791377
-0.000726492
-0.000984794
-0.000611802
-0.0011572
-0.000577614
-0.00131173
-0.000597074
-0.00145264
-0.000639975
-0.00158473
-0.000663782
-0.00171073
-0.000603975
-0.00182383
-0.000369482
-0.00189351
0.000146786
-0.00185503
0.00102516
-0.001631
0.00225968
-0.00116584
0.00361951
-0.000509008
0.00441284
0.00307846
-0.000118308
-0.00125685
-0.000494814
-0.00187433
-0.00100445
-0.00165887
-0.00152404
-0.00122368
-0.00198876
-0.000829609
-0.00238228
-0.000554235
-0.0027121
-0.000396036
-0.0029939
-0.000329367
-0.00324355
-0.000327312
-0.00347384
-0.00036612
-0.00369236
-0.000420775
-0.00389762
-0.00045783
-0.00407159
-0.000429301
-0.00416934
-0.000271023
-0.00411178
8.99191e-05
-0.00379428
0.000708327
-0.00312473
0.00159073
-0.00208139
0.00257668
-0.000839273
0.00317109
0.00223933
-0.000484026
-0.00077255
-0.00138217
-0.000975541
-0.00228793
-0.000752363
-0.00303001
-0.000480894
-0.00358535
-0.000273622
-0.00399124
-0.000147747
-0.00429869
-8.80241e-05
-0.00455326
-7.42469e-05
-0.00478929
-9.07301e-05
-0.00502897
-0.000125897
-0.00528073
-0.000168472
-0.005534
-0.000204013
-0.00575055
-0.000212199
-0.00585561
-0.000165414
-0.00573905
-2.60831e-05
-0.00526081
0.000230618
-0.00429998
0.000630401
-0.00283675
0.00111387
-0.00112212
0.00145678
0.00111734
-0.000772235
-0.00174708
-0.00249866
-0.00297882
-0.0032518
-0.00339898
-0.0034865
-0.00356029
-0.00365058
-0.00377606
-0.00394413
-0.00414775
-0.00435957
-0.00452461
-0.00455032
-0.00431935
-0.00368861
-0.00257444
-0.00111744
)
;

boundaryField
{
    leftWall
    {
        type            calculated;
        value           nonuniform List<scalar> 10(0 0 0 0 0 0 0 0 0 -4.33681e-19);
    }
    rightWall
    {
        type            calculated;
        value           nonuniform List<scalar> 10(0 0 0 4.33681e-19 0 0 0 0 0 0);
    }
    topWall
    {
        type            calculated;
        value           uniform 0;
    }
    bottomWall
    {
        type            calculated;
        value           uniform 0;
    }
    frontAndBackPlanes
    {
        type            empty;
    }
}


// ************************************************************************* //
