/*--------------------------------*- C++ -*----------------------------------*\
| =========                 |                                                 |
| \\      /  F ield         | OpenFOAM: The Open Source CFD Toolbox           |
|  \\    /   O peration     | Version:  2506                                  |
|   \\  /    A nd           | Website:  www.openfoam.com                      |
|    \\/     M anipulation  |                                                 |
\*---------------------------------------------------------------------------*/
FoamFile
{
    version     2.0;
    format      ascii;
    arch        "LSB;label=32;scalar=64";
    class       volScalarField;
    location    "64.4";
    object      T;
}
// * * * * * * * * * * * * * * * * * * * * * * * * * * * * * * * * * * * * * //

dimensions      [0 0 0 1 0 0 0];

internalField   nonuniform List<scalar> 
200
(
273.153
273.158
273.163
273.165
273.167
273.168
273.169
273.169
273.17
273.17
273.171
273.172
273.173
273.175
273.178
273.186
273.209
273.272
273.435
273.809
273.157
273.17
273.179
273.186
273.189
273.191
273.192
273.192
273.192
273.193
273.194
273.194
273.195
273.195
273.196
273.2
273.22
273.282
273.453
273.836
273.164
273.189
273.209
273.221
273.228
273.23
273.231
273.231
273.23
273.23
273.23
273.229
273.228
273.226
273.223
273.225
273.244
273.311
273.492
273.869
273.172
273.214
273.246
273.265
273.275
273.279
273.279
273.278
273.276
273.275
273.273
273.27
273.266
273.26
273.253
273.253
273.273
273.347
273.537
273.9
273.183
273.243
273.287
273.314
273.327
273.332
273.331
273.329
273.326
273.323
273.32
273.316
273.308
273.297
273.286
273.285
273.309
273.391
273.586
273.929
273.194
273.274
273.333
273.367
273.383
273.387
273.386
273.384
273.381
273.379
273.376
273.37
273.36
273.346
273.333
273.334
273.366
273.456
273.646
273.954
273.206
273.309
273.381
273.422
273.44
273.446
273.447
273.447
273.448
273.448
273.447
273.443
273.435
273.425
273.418
273.424
273.458
273.544
273.712
273.979
273.222
273.348
273.431
273.477
273.499
273.511
273.519
273.526
273.533
273.539
273.544
273.546
273.545
273.543
273.543
273.553
273.584
273.655
273.79
274.008
273.239
273.384
273.476
273.529
273.56
273.582
273.599
273.615
273.629
273.643
273.656
273.667
273.677
273.686
273.694
273.707
273.733
273.786
273.883
274.042
273.251
273.404
273.5
273.557
273.594
273.622
273.645
273.666
273.687
273.708
273.728
273.749
273.769
273.79
273.812
273.834
273.863
273.906
273.973
274.077
)
;

boundaryField
{
    leftWall
    {
        type            fixedValue;
        value           uniform 273.15;
    }
    rightWall
    {
        type            customNeumannDirichletCoupledBoundary;
        refValue        nonuniform List<scalar> 10(274.126 274.128 274.13 274.132 274.134 274.136 274.137 274.139 274.141 274.143);
        refGradient     uniform 0;
        valueFraction   uniform 1;
        source          uniform 0;
        value           nonuniform List<scalar> 10(274.126 274.128 274.13 274.132 274.134 274.136 274.137 274.139 274.141 274.143);
        kappaMethod     fluidThermo;
    }
    topWall
    {
        type            zeroGradient;
    }
    bottomWall
    {
        type            zeroGradient;
    }
    frontAndBackPlanes
    {
        type            empty;
    }
}


// ************************************************************************* //
