/*--------------------------------*- C++ -*----------------------------------*\
| =========                 |                                                 |
| \\      /  F ield         | OpenFOAM: The Open Source CFD Toolbox           |
|  \\    /   O peration     | Version:  2506                                  |
|   \\  /    A nd           | Website:  www.openfoam.com                      |
|    \\/     M anipulation  |                                                 |
\*---------------------------------------------------------------------------*/
FoamFile
{
    version     2.0;
    format      ascii;
    arch        "LSB;label=32;scalar=64";
    class       volVectorField;
    location    "82.2";
    object      U;
}
// * * * * * * * * * * * * * * * * * * * * * * * * * * * * * * * * * * * * * //

dimensions      [0 1 -1 0 0 0 0];

internalField   nonuniform List<vector> 
200
(
(0.000196641 -0.000735027 0)
(0.0014189 -0.000992646 0)
(0.00290011 -0.000786469 0)
(0.00419671 -0.000496666 0)
(0.00510777 -0.000261395 0)
(0.00570715 -0.000121594 0)
(0.00611653 -7.60508e-05 0)
(0.00645523 -0.000106204 0)
(0.00682158 -0.000192397 0)
(0.0072905 -0.000321677 0)
(0.00791799 -0.000489373 0)
(0.00874595 -0.000695865 0)
(0.00980036 -0.000937692 0)
(0.0110751 -0.00119057 0)
(0.0124868 -0.0013798 0)
(0.0137732 -0.00132749 0)
(0.0143351 -0.00066473 0)
(0.0132427 0.00118434 0)
(0.00953502 0.00433381 0)
(0.0028877 0.00611715 0)
(0.000362671 -0.00314925 0)
(0.00245444 -0.00520004 0)
(0.00488665 -0.00499911 0)
(0.00710972 -0.00394098 0)
(0.00884235 -0.00279818 0)
(0.0100997 -0.00193265 0)
(0.011014 -0.00145093 0)
(0.0117344 -0.00132947 0)
(0.0123869 -0.00149652 0)
(0.0130622 -0.00187609 0)
(0.013815 -0.00240242 0)
(0.0146628 -0.00300964 0)
(0.0155772 -0.0035966 0)
(0.0164587 -0.00396368 0)
(0.0170926 -0.00372101 0)
(0.0170936 -0.00218417 0)
(0.0158474 0.00164866 0)
(0.0126429 0.00855011 0)
(0.00740714 0.01702 0)
(0.00127543 0.0175642 0)
(0.000404707 -0.006002 0)
(0.00266957 -0.0101817 0)
(0.00520074 -0.0100635 0)
(0.00749159 -0.00819609 0)
(0.00927375 -0.00605995 0)
(0.0105668 -0.00434635 0)
(0.011497 -0.00326973 0)
(0.0121968 -0.00280035 0)
(0.0127697 -0.00281044 0)
(0.0132824 -0.00315175 0)
(0.0137666 -0.0036812 0)
(0.014219 -0.00424388 0)
(0.0145933 -0.00461708 0)
(0.0147787 -0.00441939 0)
(0.0145703 -0.00300613 0)
(0.0136325 0.000578206 0)
(0.0116047 0.00731849 0)
(0.00831104 0.0173164 0)
(0.00417813 0.0272035 0)
(0.000501205 0.0237925 0)
(0.000397448 -0.0089196 0)
(0.00251742 -0.0150385 0)
(0.00473243 -0.0147881 0)
(0.00662062 -0.0120109 0)
(0.0079978 -0.00887467 0)
(0.00893209 -0.00634887 0)
(0.009559 -0.0047058 0)
(0.00999345 -0.0038769 0)
(0.0103096 -0.00366682 0)
(0.0105467 -0.0038614 0)
(0.0107199 -0.00425866 0)
(0.0108233 -0.0046401 0)
(0.0108236 -0.00469263 0)
(0.0106407 -0.00389894 0)
(0.010126 -0.00144736 0)
(0.0090458 0.00370906 0)
(0.00724551 0.0123531 0)
(0.00472571 0.0239505 0)
(0.00197612 0.0337065 0)
(0.000114919 0.0267779 0)
(0.00036689 -0.0115773 0)
(0.00211617 -0.019117 0)
(0.00371127 -0.018421 0)
(0.00489116 -0.0146661 0)
(0.00561132 -0.0106321 0)
(0.00600355 -0.00746441 0)
(0.00620619 -0.00541304 0)
(0.00630572 -0.00432911 0)
(0.00634153 -0.00394453 0)
(0.00632786 -0.00399897 0)
(0.00626963 -0.00426273 0)
(0.00616534 -0.00448615 0)
(0.00599711 -0.00429681 0)
(0.00571231 -0.00307697 0)
(0.00520336 9.91071e-05 0)
(0.00434396 0.00627188 0)
(0.00309371 0.0160081 0)
(0.00157867 0.0281791 0)
(0.000218805 0.0370943 0)
(-0.00016407 0.0276564 0)
(0.000301231 -0.0137231 0)
(0.00140982 -0.0219005 0)
(0.00206427 -0.0204198 0)
(0.00226483 -0.0157327 0)
(0.00215472 -0.0110495 0)
(0.00191324 -0.00753209 0)
(0.00164882 -0.00531786 0)
(0.00139768 -0.00415258 0)
(0.00115972 -0.0037116 0)
(0.0009284 -0.00371847 0)
(0.000700641 -0.00394024 0)
(0.000471018 -0.00410865 0)
(0.000220484 -0.00380153 0)
(-9.12624e-05 -0.00232676 0)
(-0.000521452 0.00128638 0)
(-0.00105095 0.00797443 0)
(-0.00155977 0.0180155 0)
(-0.00179799 0.0297969 0)
(-0.00147958 0.0373897 0)
(-0.000367646 0.0267118 0)
(0.000173231 -0.0149329 0)
(0.000208238 -0.0226507 0)
(-0.000503414 -0.0201123 0)
(-0.00155959 -0.0147471 0)
(-0.00263251 -0.0098668 0)
(-0.00356228 -0.00642432 0)
(-0.0043175 -0.00436194 0)
(-0.00492924 -0.00333006 0)
(-0.00543942 -0.00298599 0)
(-0.00587898 -0.00306446 0)
(-0.00626867 -0.00333549 0)
(-0.00662782 -0.00351268 0)
(-0.00697574 -0.00315114 0)
(-0.00731188 -0.00158087 0)
(-0.0075719 0.00204413 0)
(-0.00755901 0.00844605 0)
(-0.00699256 0.0176855 0)
(-0.00559573 0.0280812 0)
(-0.00337093 0.0342088 0)
(-0.000627625 0.0238013 0)
(-0.000121469 -0.0144362 0)
(-0.00181127 -0.0202336 0)
(-0.00429983 -0.0166865 0)
(-0.00676738 -0.0113269 0)
(-0.00878939 -0.00695866 0)
(-0.0103114 -0.00412209 0)
(-0.0114323 -0.00256628 0)
(-0.0122773 -0.0018994 0)
(-0.0129508 -0.0018033 0)
(-0.0135261 -0.00204711 0)
(-0.014051 -0.00242471 0)
(-0.014548 -0.00267591 0)
(-0.0149997 -0.0024176 0)
(-0.0153151 -0.00111614 0)
(-0.0152743 0.00185273 0)
(-0.0145322 0.00700713 0)
(-0.0127017 0.014345 0)
(-0.00953783 0.0224887 0)
(-0.0053409 0.0271615 0)
(-0.000913908 0.018794 0)
(-0.000715958 -0.0111142 0)
(-0.00471661 -0.0136848 0)
(-0.00895125 -0.00988933 0)
(-0.0123842 -0.0056885 0)
(-0.0147121 -0.00275688 0)
(-0.016169 -0.00112717 0)
(-0.0170746 -0.000424908 0)
(-0.0176872 -0.000299362 0)
(-0.0181853 -0.000508827 0)
(-0.0186753 -0.000896308 0)
(-0.0192117 -0.0013363 0)
(-0.0198005 -0.00167609 0)
(-0.0203763 -0.00169242 0)
(-0.0207693 -0.00107461 0)
(-0.0206651 0.00055652 0)
(-0.0195787 0.00357319 0)
(-0.0170047 0.00805188 0)
(-0.0126561 0.0132154 0)
(-0.00698848 0.0164669 0)
(-0.00119479 0.0117601 0)
(-0.00176072 -0.00377228 0)
(-0.00641372 -0.00356989 0)
(-0.0100314 -0.00189873 0)
(-0.0121956 -0.000614685 0)
(-0.0131703 5.88391e-05 0)
(-0.0134807 0.000316615 0)
(-0.0135159 0.000346122 0)
(-0.0134923 0.000259179 0)
(-0.0135205 0.000117823 0)
(-0.0136689 -4.64773e-05 0)
(-0.0139765 -0.000220538 0)
(-0.014444 -0.000389608 0)
(-0.0150199 -0.000522009 0)
(-0.015573 -0.000558668 0)
(-0.0158529 -0.00039973 0)
(-0.0154877 0.000112491 0)
(-0.0139705 0.00111951 0)
(-0.010874 0.00257339 0)
(-0.00640804 0.00387721 0)
(-0.00154016 0.00331244 0)
)
;

boundaryField
{
    leftWall
    {
        type            fixedValue;
        value           uniform (0 0 0);
    }
    rightWall
    {
        type            fixedValue;
        value           uniform (0 0 0);
    }
    topWall
    {
        type            fixedValue;
        value           uniform (0 0 0);
    }
    bottomWall
    {
        type            fixedValue;
        value           uniform (0 0 0);
    }
    frontAndBackPlanes
    {
        type            empty;
    }
}


// ************************************************************************* //
