/*--------------------------------*- C++ -*----------------------------------*\
| =========                 |                                                 |
| \\      /  F ield         | OpenFOAM: The Open Source CFD Toolbox           |
|  \\    /   O peration     | Version:  2506                                  |
|   \\  /    A nd           | Website:  www.openfoam.com                      |
|    \\/     M anipulation  |                                                 |
\*---------------------------------------------------------------------------*/
FoamFile
{
    version     2.0;
    format      ascii;
    arch        "LSB;label=32;scalar=64";
    class       volScalarField;
    location    "141.8";
    object      p;
}
// * * * * * * * * * * * * * * * * * * * * * * * * * * * * * * * * * * * * * //

dimensions      [1 -1 -2 0 0 0 0];

internalField   nonuniform List<scalar> 
200
(
100000
100000
100000
99999.9
99999.8
99999.8
99999.7
99999.7
99999.6
99999.6
99999.5
99999.5
99999.4
99999.4
99999.3
99999.2
99999.1
99998.9
99998.8
99998.7
99733.6
99733.6
99733.6
99733.5
99733.5
99733.4
99733.4
99733.4
99733.4
99733.3
99733.3
99733.3
99733.2
99733.2
99733.2
99733.1
99733.1
99733
99733
99733
99467.3
99467.4
99467.3
99467.3
99467.3
99467.3
99467.2
99467.2
99467.2
99467.2
99467.2
99467.2
99467.2
99467.1
99467.1
99467.1
99467.1
99467.1
99467.1
99467.1
99201.3
99201.3
99201.3
99201.3
99201.3
99201.3
99201.3
99201.3
99201.3
99201.3
99201.2
99201.2
99201.2
99201.2
99201.2
99201.2
99201.2
99201.2
99201.2
99201.3
98935.5
98935.5
98935.5
98935.5
98935.5
98935.5
98935.5
98935.5
98935.5
98935.5
98935.5
98935.5
98935.4
98935.4
98935.4
98935.4
98935.4
98935.4
98935.5
98935.5
98669.9
98669.9
98669.9
98669.8
98669.8
98669.8
98669.8
98669.8
98669.8
98669.8
98669.8
98669.8
98669.8
98669.8
98669.8
98669.8
98669.8
98669.8
98669.8
98669.9
98404.4
98404.4
98404.4
98404.4
98404.4
98404.3
98404.3
98404.3
98404.3
98404.3
98404.3
98404.3
98404.3
98404.3
98404.3
98404.4
98404.4
98404.4
98404.4
98404.4
98139.1
98139
98139
98139
98139
98139
98139
98139
98139.1
98139.1
98139.1
98139.1
98139.1
98139.1
98139.1
98139.2
98139.2
98139.2
98139.3
98139.3
97873.7
97873.7
97873.7
97873.8
97873.8
97873.8
97873.9
97873.9
97874
97874
97874
97874.1
97874.1
97874.1
97874.2
97874.3
97874.3
97874.4
97874.4
97874.4
97608.2
97608.3
97608.4
97608.6
97608.7
97608.8
97608.9
97609
97609
97609.1
97609.2
97609.2
97609.3
97609.4
97609.5
97609.6
97609.7
97609.8
97609.9
97609.9
)
;

boundaryField
{
    leftWall
    {
        type            zeroGradient;
    }
    rightWall
    {
        type            zeroGradient;
    }
    topWall
    {
        type            zeroGradient;
    }
    bottomWall
    {
        type            zeroGradient;
    }
    frontAndBackPlanes
    {
        type            empty;
    }
}


// ************************************************************************* //
