/*--------------------------------*- C++ -*----------------------------------*\
| =========                 |                                                 |
| \\      /  F ield         | OpenFOAM: The Open Source CFD Toolbox           |
|  \\    /   O peration     | Version:  2506                                  |
|   \\  /    A nd           | Website:  www.openfoam.com                      |
|    \\/     M anipulation  |                                                 |
\*---------------------------------------------------------------------------*/
FoamFile
{
    version     2.0;
    format      ascii;
    arch        "LSB;label=32;scalar=64";
    class       volVectorField;
    location    "10.2";
    object      U;
}
// * * * * * * * * * * * * * * * * * * * * * * * * * * * * * * * * * * * * * //

dimensions      [0 1 -1 0 0 0 0];

internalField   nonuniform List<vector> 
200
(
(-0.000263144 -0.000141811 0)
(-0.000317807 -0.000207944 0)
(-2.50078e-05 -0.000211894 0)
(0.000418582 -0.00025879 0)
(0.000938404 -0.000313433 0)
(0.00157178 -0.00036906 0)
(0.00232122 -0.000432636 0)
(0.00319331 -0.000510163 0)
(0.00420176 -0.000606254 0)
(0.0053631 -0.000724407 0)
(0.00669132 -0.000866178 0)
(0.0081911 -0.00102907 0)
(0.00984791 -0.00120235 0)
(0.0116114 -0.00135866 0)
(0.0133601 -0.001435 0)
(0.0148194 -0.00128519 0)
(0.0154117 -0.000575 0)
(0.0142343 0.0013041 0)
(0.0102968 0.0045911 0)
(0.00313372 0.00661468 0)
(-3.18201e-05 -0.000272828 0)
(6.78075e-05 -0.000744986 0)
(0.000475774 -0.00119687 0)
(0.00111991 -0.00165071 0)
(0.00197593 -0.00207263 0)
(0.00302814 -0.00247883 0)
(0.00426557 -0.00289504 0)
(0.0056842 -0.0033417 0)
(0.00728298 -0.00382802 0)
(0.00905573 -0.0043473 0)
(0.0109802 -0.00487015 0)
(0.0130037 -0.00533331 0)
(0.0150229 -0.0056208 0)
(0.0168579 -0.00553104 0)
(0.0182207 -0.00471871 0)
(0.0186784 -0.00260054 0)
(0.0175914 0.00173902 0)
(0.0142123 0.00915167 0)
(0.00845892 0.0183008 0)
(0.00150422 0.0192465 0)
(4.3075e-06 -0.000336948 0)
(0.00016154 -0.00128276 0)
(0.00057486 -0.00228845 0)
(0.00122683 -0.0032304 0)
(0.00208907 -0.00408536 0)
(0.0031385 -0.00488342 0)
(0.00435956 -0.00566482 0)
(0.00574165 -0.00645595 0)
(0.00727291 -0.00725665 0)
(0.00893126 -0.00802995 0)
(0.0106728 -0.00868915 0)
(0.0124171 -0.00907924 0)
(0.0140301 -0.0089498 0)
(0.0153054 -0.00791511 0)
(0.0159498 -0.00540024 0)
(0.0155744 -0.000597515 0)
(0.0137197 0.00741565 0)
(0.010177 0.0187535 0)
(0.00538368 0.0300051 0)
(0.000742814 0.0268278 0)
(-3.03173e-06 -0.000475696 0)
(0.000105352 -0.00184519 0)
(0.000409942 -0.00329378 0)
(0.00090316 -0.00464476 0)
(0.001565 -0.0058636 0)
(0.00237595 -0.00698847 0)
(0.0033227 -0.00807001 0)
(0.00439664 -0.00913655 0)
(0.00558797 -0.0101748 0)
(0.00687719 -0.0111147 0)
(0.00822412 -0.0118112 0)
(0.00955436 -0.0120215 0)
(0.0107451 -0.0113775 0)
(0.0116146 -0.00935326 0)
(0.0119202 -0.00523839 0)
(0.0113598 0.00183459 0)
(0.0096859 0.0125761 0)
(0.00684241 0.0264215 0)
(0.00332974 0.038278 0)
(0.000381568 0.0313046 0)
(-1.43435e-05 -0.000507524 0)
(-2.07936e-05 -0.00212976 0)
(8.65077e-05 -0.00389212 0)
(0.000314643 -0.0055455 0)
(0.000654782 -0.00703407 0)
(0.00109551 -0.00840188 0)
(0.00163139 -0.00971137 0)
(0.0022637 -0.010996 0)
(0.00299592 -0.0122341 0)
(0.00382617 -0.0133283 0)
(0.00473648 -0.0140826 0)
(0.00567851 -0.0141757 0)
(0.00655933 -0.0131369 0)
(0.00723295 -0.0103309 0)
(0.00750655 -0.00496896 0)
(0.00715351 0.00379465 0)
(0.00601137 0.0164572 0)
(0.00409661 0.0318563 0)
(0.00183237 0.043708 0)
(0.000163463 0.0338583 0)
(-3.11419e-05 -0.000383307 0)
(-0.000179961 -0.00204338 0)
(-0.000311827 -0.00395467 0)
(-0.000407951 -0.00577382 0)
(-0.000463652 -0.00741522 0)
(-0.000481636 -0.00892837 0)
(-0.000457129 -0.010392 0)
(-0.00037458 -0.0118531 0)
(-0.000210885 -0.0132928 0)
(5.88669e-05 -0.0146 0)
(0.000450863 -0.0155374 0)
(0.000955968 -0.0157104 0)
(0.00152411 -0.0145474 0)
(0.00205332 -0.0113043 0)
(0.00239967 -0.00512399 0)
(0.00239923 0.0047979 0)
(0.00195 0.0187365 0)
(0.00114913 0.0350136 0)
(0.000290636 0.0465779 0)
(-5.9905e-05 0.0348807 0)
(-4.67377e-05 -9.14787e-05 0)
(-0.00032244 -0.00155325 0)
(-0.000682396 -0.00342475 0)
(-0.00110928 -0.00523979 0)
(-0.00159351 -0.00687805 0)
(-0.00213211 -0.00839853 0)
(-0.00271234 -0.00990374 0)
(-0.00330715 -0.0114641 0)
(-0.00387601 -0.0130769 0)
(-0.00436828 -0.0146317 0)
(-0.00473041 -0.0158701 0)
(-0.00491965 -0.0163424 0)
(-0.00492213 -0.015383 0)
(-0.00476389 -0.0121387 0)
(-0.00449447 -0.00568706 0)
(-0.00414445 0.0047083 0)
(-0.00369878 0.0190407 0)
(-0.00295209 0.0352405 0)
(-0.00181607 0.0461595 0)
(-0.000348565 0.0340317 0)
(-4.56639e-05 0.00030684 0)
(-0.000348804 -0.000754532 0)
(-0.000836259 -0.00236729 0)
(-0.00151765 -0.00394623 0)
(-0.00238902 -0.00534982 0)
(-0.00344369 -0.00665442 0)
(-0.00466741 -0.00799002 0)
(-0.00603667 -0.00945686 0)
(-0.00751531 -0.0110829 0)
(-0.00904902 -0.0127851 0)
(-0.0105618 -0.0143176 0)
(-0.0119575 -0.0152148 0)
(-0.0131247 -0.0147646 0)
(-0.013936 -0.0120653 0)
(-0.0142231 -0.00620338 0)
(-0.0137089 0.0034272 0)
(-0.0121032 0.0165616 0)
(-0.00913901 0.0311621 0)
(-0.00511739 0.0409341 0)
(-0.000873417 0.0302954 0)
(6.25681e-06 0.000600708 0)
(-9.16931e-05 1.50598e-05 0)
(-0.000483179 -0.00110245 0)
(-0.00121793 -0.00216243 0)
(-0.00228198 -0.00305646 0)
(-0.00364828 -0.00387568 0)
(-0.00530612 -0.00475584 0)
(-0.00726406 -0.0058079 0)
(-0.00953894 -0.00708836 0)
(-0.0121357 -0.0085664 0)
(-0.0150204 -0.0100702 0)
(-0.0180868 -0.0112228 0)
(-0.0211171 -0.0114169 0)
(-0.0237463 -0.00989336 0)
(-0.0254467 -0.0059373 0)
(-0.0255068 0.000881511 0)
(-0.0229851 0.0104046 0)
(-0.0175339 0.0211514 0)
(-0.00987612 0.0288005 0)
(-0.00173961 0.0221429 0)
(0.000146033 0.000327859 0)
(0.000366699 0.000180429 0)
(0.000263583 -0.000123841 0)
(-0.000201671 -0.00037175 0)
(-0.000971407 -0.000549949 0)
(-0.00198168 -0.000702517 0)
(-0.00323205 -0.000878829 0)
(-0.00476828 -0.00111908 0)
(-0.00667006 -0.00145139 0)
(-0.00903201 -0.00188519 0)
(-0.011929 -0.00239259 0)
(-0.0153551 -0.00287959 0)
(-0.0191391 -0.00316887 0)
(-0.022866 -0.00302715 0)
(-0.0258364 -0.00223402 0)
(-0.0270821 -0.000614145 0)
(-0.025619 0.00201045 0)
(-0.0207422 0.00545992 0)
(-0.0127675 0.00853402 0)
(-0.00338622 0.00753348 0)
)
;

boundaryField
{
    leftWall
    {
        type            fixedValue;
        value           uniform (0 0 0);
    }
    rightWall
    {
        type            fixedValue;
        value           uniform (0 0 0);
    }
    topWall
    {
        type            fixedValue;
        value           uniform (0 0 0);
    }
    bottomWall
    {
        type            fixedValue;
        value           uniform (0 0 0);
    }
    frontAndBackPlanes
    {
        type            empty;
    }
}


// ************************************************************************* //
