/*--------------------------------*- C++ -*----------------------------------*\
| =========                 |                                                 |
| \\      /  F ield         | OpenFOAM: The Open Source CFD Toolbox           |
|  \\    /   O peration     | Version:  2506                                  |
|   \\  /    A nd           | Website:  www.openfoam.com                      |
|    \\/     M anipulation  |                                                 |
\*---------------------------------------------------------------------------*/
FoamFile
{
    version     2.0;
    format      ascii;
    arch        "LSB;label=32;scalar=64";
    class       volVectorField;
    location    "68";
    object      U;
}
// * * * * * * * * * * * * * * * * * * * * * * * * * * * * * * * * * * * * * //

dimensions      [0 1 -1 0 0 0 0];

internalField   nonuniform List<vector> 
200
(
(6.42103e-05 -0.000524397 0)
(0.00094854 -0.000747576 0)
(0.00216262 -0.000635626 0)
(0.0033064 -0.00045583 0)
(0.0041873 -0.000297696 0)
(0.00484791 -0.000196956 0)
(0.00536759 -0.000162431 0)
(0.00583367 -0.000187863 0)
(0.00632614 -0.000263777 0)
(0.00691277 -0.000384016 0)
(0.00764991 -0.000547341 0)
(0.00858347 -0.000754675 0)
(0.00974332 -0.00100082 0)
(0.011124 -0.00125798 0)
(0.0126384 -0.00144749 0)
(0.0140149 -0.001389 0)
(0.0146366 -0.000711078 0)
(0.0135571 0.0011791 0)
(0.00978947 0.00441355 0)
(0.00297089 0.00628463 0)
(0.000278155 -0.00237545 0)
(0.00198931 -0.00415261 0)
(0.00408944 -0.00424749 0)
(0.00610531 -0.00361954 0)
(0.00777777 -0.00283905 0)
(0.0090915 -0.00220927 0)
(0.0101347 -0.00184625 0)
(0.0110191 -0.00176123 0)
(0.0118458 -0.00192005 0)
(0.0126928 -0.00227663 0)
(0.0136104 -0.0027835 0)
(0.0146162 -0.00338095 0)
(0.0156819 -0.00396307 0)
(0.0167051 -0.00431726 0)
(0.0174621 -0.00403725 0)
(0.0175522 -0.00242456 0)
(0.0163429 0.00153908 0)
(0.0130881 0.00865526 0)
(0.00770021 0.017415 0)
(0.00133506 0.0180952 0)
(0.000347451 -0.00477424 0)
(0.00235551 -0.00849936 0)
(0.0046833 -0.00884141 0)
(0.00686785 -0.00765956 0)
(0.00864697 -0.00611462 0)
(0.010014 -0.00479947 0)
(0.0110632 -0.00393753 0)
(0.0119021 -0.00354904 0)
(0.0126182 -0.00356238 0)
(0.0132705 -0.00387512 0)
(0.013888 -0.00437299 0)
(0.0144673 -0.00491145 0)
(0.0149615 -0.00526058 0)
(0.0152562 -0.00501742 0)
(0.0151369 -0.00350705 0)
(0.0142515 0.000256931 0)
(0.0122027 0.00729561 0)
(0.00879731 0.0177038 0)
(0.00446697 0.0280315 0)
(0.000550997 0.024667 0)
(0.000364428 -0.00742038 0)
(0.00237063 -0.0130382 0)
(0.00454345 -0.0134008 0)
(0.00646043 -0.0114834 0)
(0.00791756 -0.0090665 0)
(0.00895488 -0.00701113 0)
(0.00968688 -0.00561126 0)
(0.0102178 -0.00486531 0)
(0.0106192 -0.00464818 0)
(0.0109318 -0.00480053 0)
(0.0111735 -0.00515341 0)
(0.0113407 -0.00549877 0)
(0.0114011 -0.00551261 0)
(0.0112727 -0.00464721 0)
(0.0107995 -0.00204401 0)
(0.00972465 0.00340361 0)
(0.00786348 0.0125058 0)
(0.00520036 0.0246914 0)
(0.00224128 0.034996 0)
(0.000157666 0.0279683 0)
(0.000356495 -0.00998243 0)
(0.00212241 -0.0171116 0)
(0.00381859 -0.0171713 0)
(0.00514023 -0.0143606 0)
(0.00599858 -0.0110617 0)
(0.00649944 -0.00833627 0)
(0.00677432 -0.00648371 0)
(0.00691496 -0.00544087 0)
(0.00697081 -0.00501835 0)
(0.00696563 -0.00501157 0)
(0.00691114 -0.0052211 0)
(0.00680963 -0.0054039 0)
(0.00664456 -0.0051719 0)
(0.00636291 -0.00386888 0)
(0.00585649 -0.000505112 0)
(0.00496149 0.00605332 0)
(0.00362908 0.0163845 0)
(0.00196914 0.0292882 0)
(0.000427346 0.0388154 0)
(-0.000129615 0.0291029 0)
(0.000309691 -0.0121804 0)
(0.00153756 -0.0201446 0)
(0.00239258 -0.0195296 0)
(0.00279399 -0.0157712 0)
(0.00282723 -0.0117361 0)
(0.0026595 -0.00855594 0)
(0.00241198 -0.0064512 0)
(0.00214113 -0.00526623 0)
(0.00186479 -0.00475382 0)
(0.00158855 -0.00468598 0)
(0.00131613 -0.00485225 0)
(0.0010446 -0.00498488 0)
(0.000753887 -0.00464047 0)
(0.000402793 -0.00308143 0)
(-7.55542e-05 0.000748944 0)
(-0.000673754 0.00789261 0)
(-0.00126945 0.0186267 0)
(-0.00161209 0.0312278 0)
(-0.00140105 0.0394309 0)
(-0.000362252 0.0283091 0)
(0.000192126 -0.0135606 0)
(0.000414703 -0.0213083 0)
(-5.48143e-05 -0.0196842 0)
(-0.000926788 -0.0151282 0)
(-0.00191007 -0.0107256 0)
(-0.00283366 -0.00747456 0)
(-0.00363811 -0.00542652 0)
(-0.00432777 -0.0043264 0)
(-0.00492602 -0.00389428 0)
(-0.00545348 -0.00389906 0)
(-0.00592669 -0.00412264 0)
(-0.00636501 -0.00427061 0)
(-0.00679085 -0.00386818 0)
(-0.00720836 -0.00219058 0)
(-0.00755736 0.00168238 0)
(-0.00762459 0.00854308 0)
(-0.00710915 0.018457 0)
(-0.00572173 0.0296322 0)
(-0.00346563 0.0363061 0)
(-0.000651601 0.0253838 0)
(-8.32923e-05 -0.0133128 0)
(-0.00154687 -0.0193626 0)
(-0.0038314 -0.016645 0)
(-0.00619741 -0.0118991 0)
(-0.00822572 -0.00782001 0)
(-0.00983025 -0.0050433 0)
(-0.0110749 -0.00342999 0)
(-0.0120588 -0.0026679 0)
(-0.0128705 -0.00248276 0)
(-0.0135772 -0.00266241 0)
(-0.0142261 -0.0030027 0)
(-0.0148417 -0.00322969 0)
(-0.0154084 -0.00292964 0)
(-0.0158328 -0.00152212 0)
(-0.0158841 0.00167187 0)
(-0.0151832 0.00721028 0)
(-0.0133177 0.0151003 0)
(-0.0100275 0.0238795 0)
(-0.00563074 0.0289877 0)
(-0.000969167 0.0201517 0)
(-0.000648925 -0.0103207 0)
(-0.00438537 -0.0132605 0)
(-0.00848816 -0.0100906 0)
(-0.0119478 -0.00625774 0)
(-0.0144163 -0.00343763 0)
(-0.0160665 -0.00177364 0)
(-0.0171781 -0.000980636 0)
(-0.0179846 -0.000757819 0)
(-0.0186527 -0.000889229 0)
(-0.0192925 -0.00122786 0)
(-0.019968 -0.00164465 0)
(-0.0206899 -0.00197348 0)
(-0.0213915 -0.00196925 0)
(-0.0218937 -0.00129241 0)
(-0.0218633 0.000468299 0)
(-0.0207719 0.00371428 0)
(-0.018081 0.00853839 0)
(-0.0134841 0.0141165 0)
(-0.00746374 0.0176694 0)
(-0.0012819 0.0126761 0)
(-0.00162023 -0.00348327 0)
(-0.00601829 -0.00347283 0)
(-0.0096269 -0.00200292 0)
(-0.0119476 -0.000800644 0)
(-0.0131408 -0.000129257 0)
(-0.0136623 0.000157483 0)
(-0.0138707 0.000222205 0)
(-0.0139829 0.000169501 0)
(-0.0141239 5.51289e-05 0)
(-0.0143706 -9.46979e-05 0)
(-0.0147672 -0.00026582 0)
(-0.0153208 -0.000439552 0)
(-0.0159828 -0.000579208 0)
(-0.0166163 -0.000619339 0)
(-0.0169522 -0.000450584 0)
(-0.0165942 9.99285e-05 0)
(-0.0149981 0.00118981 0)
(-0.0116984 0.00276954 0)
(-0.00691278 0.00419304 0)
(-0.00166938 0.00359435 0)
)
;

boundaryField
{
    leftWall
    {
        type            fixedValue;
        value           uniform (0 0 0);
    }
    rightWall
    {
        type            fixedValue;
        value           uniform (0 0 0);
    }
    topWall
    {
        type            fixedValue;
        value           uniform (0 0 0);
    }
    bottomWall
    {
        type            fixedValue;
        value           uniform (0 0 0);
    }
    frontAndBackPlanes
    {
        type            empty;
    }
}


// ************************************************************************* //
