/*--------------------------------*- C++ -*----------------------------------*\
| =========                 |                                                 |
| \\      /  F ield         | OpenFOAM: The Open Source CFD Toolbox           |
|  \\    /   O peration     | Version:  2506                                  |
|   \\  /    A nd           | Website:  www.openfoam.com                      |
|    \\/     M anipulation  |                                                 |
\*---------------------------------------------------------------------------*/
FoamFile
{
    version     2.0;
    format      ascii;
    arch        "LSB;label=32;scalar=64";
    class       volVectorField;
    location    "86";
    object      U;
}
// * * * * * * * * * * * * * * * * * * * * * * * * * * * * * * * * * * * * * //

dimensions      [0 1 -1 0 0 0 0];

internalField   nonuniform List<vector> 
200
(
(0.000229974 -0.000790196 0)
(0.00153838 -0.00105641 0)
(0.00308891 -0.00082616 0)
(0.00442597 -0.000508519 0)
(0.00534705 -0.000253618 0)
(0.00593368 -0.00010363 0)
(0.00631778 -5.48699e-05 0)
(0.00662639 -8.57726e-05 0)
(0.00696235 -0.000174202 0)
(0.00740245 -0.000305548 0)
(0.00800279 -0.000474287 0)
(0.00880437 -0.00068059 0)
(0.00983219 -0.000921282 0)
(0.0110797 -0.00117276 0)
(0.0124641 -0.00136116 0)
(0.0137249 -0.00130925 0)
(0.0142675 -0.000649302 0)
(0.013167 0.00118908 0)
(0.00947062 0.0043148 0)
(0.00286582 0.00607283 0)
(0.000382953 -0.00334562 0)
(0.0025672 -0.00546581 0)
(0.00508151 -0.00519277 0)
(0.0073577 -0.00402942 0)
(0.00910883 -0.0027975 0)
(0.0103569 -0.00187305 0)
(0.0112442 -0.00136043 0)
(0.0119285 -0.00122797 0)
(0.0125417 -0.0013951 0)
(0.0131777 -0.00177873 0)
(0.013892 -0.00230866 0)
(0.0147023 -0.00291728 0)
(0.0155803 -0.00350408 0)
(0.0164266 -0.00387197 0)
(0.0170286 -0.00363471 0)
(0.0170043 -0.00211185 0)
(0.0157436 0.00169233 0)
(0.0125447 0.00853985 0)
(0.00734022 0.0169307 0)
(0.00126156 0.0174309 0)
(0.000417614 -0.00630478 0)
(0.00274097 -0.0105983 0)
(0.00531941 -0.0103718 0)
(0.00763642 -0.00834144 0)
(0.0094219 -0.00606385 0)
(0.0107011 -0.0042536 0)
(0.0116072 -0.00312314 0)
(0.0122782 -0.00263125 0)
(0.0128209 -0.00263727 0)
(0.0133036 -0.00298243 0)
(0.0137586 -0.00351686 0)
(0.0141829 -0.00408291 0)
(0.0145299 -0.00445882 0)
(0.0146897 -0.00426746 0)
(0.0144594 -0.00287088 0)
(0.0135066 0.000678023 0)
(0.0114797 0.00735171 0)
(0.00820735 0.0172499 0)
(0.00411569 0.0270206 0)
(0.000490452 0.023583 0)
(0.000404262 -0.00928128 0)
(0.00254664 -0.0155238 0)
(0.00476833 -0.0151323 0)
(0.00664854 -0.012155 0)
(0.0080077 -0.00885053 0)
(0.00892003 -0.00621341 0)
(0.00952538 -0.00451089 0)
(0.00994067 -0.00365911 0)
(0.0102403 -0.00344684 0)
(0.0104629 -0.00364759 0)
(0.0106229 -0.00405188 0)
(0.0107139 -0.00443844 0)
(0.0107023 -0.00449582 0)
(0.0105083 -0.00371272 0)
(0.00998455 -0.00128802 0)
(0.00890262 0.00380943 0)
(0.00711455 0.0123525 0)
(0.00462481 0.0238106 0)
(0.00191996 0.0334255 0)
(0.000106106 0.0265013 0)
(0.000368288 -0.0119547 0)
(0.00210866 -0.0195939 0)
(0.00367607 -0.018727 0)
(0.00482089 -0.0147564 0)
(0.00550858 -0.0105539 0)
(0.00587647 -0.00728385 0)
(0.00606405 -0.00518491 0)
(0.00615616 -0.00408851 0)
(0.00618961 -0.00370899 0)
(0.00617626 -0.00377378 0)
(0.00611941 -0.00404655 0)
(0.00601669 -0.00427582 0)
(0.00584991 -0.00409178 0)
(0.00556636 -0.00288405 0)
(0.00505844 0.000258508 0)
(0.00420849 0.00635273 0)
(0.00297709 0.015959 0)
(0.00149461 0.0279598 0)
(0.000177226 0.0367205 0)
(-0.000168765 0.0273253 0)
(0.000298501 -0.0140819 0)
(0.00137455 -0.022309 0)
(0.00197858 -0.0206366 0)
(0.00213117 -0.0157407 0)
(0.00198726 -0.0109115 0)
(0.00172861 -0.00731776 0)
(0.00146051 -0.0050776 0)
(0.00121433 -0.00391446 0)
(0.000985858 -0.00348659 0)
(0.000765748 -0.00350714 0)
(0.000549368 -0.00373836 0)
(0.00033073 -0.0039116 0)
(9.094e-05 -0.0036084 0)
(-0.000210531 -0.00214629 0)
(-0.00062779 0.00142574 0)
(-0.00113934 0.00802085 0)
(-0.00162651 0.0179115 0)
(-0.0018393 0.029505 0)
(-0.00149522 0.0369463 0)
(-0.000367877 0.0263486 0)
(0.000169192 -0.015247 0)
(0.000156771 -0.0229566 0)
(-0.00061383 -0.0202177 0)
(-0.00171256 -0.0146733 0)
(-0.00280757 -0.00968766 0)
(-0.00374048 -0.00620281 0)
(-0.0044861 -0.00413639 0)
(-0.00508148 -0.00311811 0)
(-0.00557253 -0.00279166 0)
(-0.00599245 -0.0028843 0)
(-0.00636306 -0.00316351 0)
(-0.00670379 -0.00334445 0)
(-0.00703333 -0.0029883 0)
(-0.00735006 -0.00143647 0)
(-0.0075883 0.00214061 0)
(-0.00755462 0.00844722 0)
(-0.006973 0.0175394 0)
(-0.0055702 0.0277569 0)
(-0.00334968 0.0337499 0)
(-0.000622014 0.0234438 0)
(-0.000130305 -0.0146909 0)
(-0.0018725 -0.0204297 0)
(-0.0044088 -0.0166989 0)
(-0.00690148 -0.0112046 0)
(-0.00892453 -0.00677369 0)
(-0.0104304 -0.00392409 0)
(-0.0115263 -0.00237985 0)
(-0.0123431 -0.0017337 0)
(-0.0129874 -0.00165761 0)
(-0.0135341 -0.00191504 0)
(-0.0140315 -0.0022996 0)
(-0.0145019 -0.00255414 0)
(-0.0149274 -0.00230211 0)
(-0.0152174 -0.00102011 0)
(-0.0151537 0.00190366 0)
(-0.014399 0.00697715 0)
(-0.0125719 0.0141937 0)
(-0.00943174 0.0221923 0)
(-0.00527641 0.0267589 0)
(-0.00090135 0.0184873 0)
(-0.000731049 -0.0112937 0)
(-0.0047912 -0.0137793 0)
(-0.00905566 -0.00984458 0)
(-0.0124833 -0.00556346 0)
(-0.0147804 -0.00260909 0)
(-0.0161943 -0.000989392 0)
(-0.0170578 -0.000309825 0)
(-0.0176341 -0.000206013 0)
(-0.0180976 -0.000431032 0)
(-0.018554 -0.000827831 0)
(-0.0190594 -0.00127165 0)
(-0.0196186 -0.00161236 0)
(-0.020166 -0.00163134 0)
(-0.0205336 -0.00102423 0)
(-0.0204108 0.000580813 0)
(-0.0193221 0.00354894 0)
(-0.0167702 0.0079517 0)
(-0.0124731 0.0130208 0)
(-0.00688192 0.0162001 0)
(-0.001175 0.0115528 0)
(-0.00179247 -0.00383793 0)
(-0.00650289 -0.00359149 0)
(-0.0101227 -0.00187538 0)
(-0.0122524 -0.000573736 0)
(-0.0131801 9.90527e-05 0)
(-0.0134463 0.000347702 0)
(-0.0134418 0.000365348 0)
(-0.0133829 0.000270925 0)
(-0.013385 0.000126997 0)
(-0.0135143 -3.83942e-05 0)
(-0.0138043 -0.000212205 0)
(-0.014254 -0.000379747 0)
(-0.0148115 -0.000510125 0)
(-0.0153468 -0.000545555 0)
(-0.0156136 -0.000388246 0)
(-0.0152452 0.000116076 0)
(-0.0137434 0.00110512 0)
(-0.01069 0.00253081 0)
(-0.00629421 0.00380685 0)
(-0.00151076 0.00324847 0)
)
;

boundaryField
{
    leftWall
    {
        type            fixedValue;
        value           uniform (0 0 0);
    }
    rightWall
    {
        type            fixedValue;
        value           uniform (0 0 0);
    }
    topWall
    {
        type            fixedValue;
        value           uniform (0 0 0);
    }
    bottomWall
    {
        type            fixedValue;
        value           uniform (0 0 0);
    }
    frontAndBackPlanes
    {
        type            empty;
    }
}


// ************************************************************************* //
