/*--------------------------------*- C++ -*----------------------------------*\
| =========                 |                                                 |
| \\      /  F ield         | OpenFOAM: The Open Source CFD Toolbox           |
|  \\    /   O peration     | Version:  2506                                  |
|   \\  /    A nd           | Website:  www.openfoam.com                      |
|    \\/     M anipulation  |                                                 |
\*---------------------------------------------------------------------------*/
FoamFile
{
    version     2.0;
    format      ascii;
    arch        "LSB;label=32;scalar=64";
    class       surfaceScalarField;
    location    "75.2";
    object      phi;
}
// * * * * * * * * * * * * * * * * * * * * * * * * * * * * * * * * * * * * * //

dimensions      [1 0 -1 0 0 0 0];

oriented        oriented;

internalField   nonuniform List<scalar> 
370
(
0.000136482
-0.000197088
0.000457812
-0.00032125
0.000767886
-0.000309957
0.00101544
-0.000247415
0.00119508
-0.000179477
0.00132389
-0.000128638
0.00142595
-0.00010189
0.00152429
-9.81527e-05
0.00163795
-0.00011348
0.00178195
-0.000143808
0.00196799
-0.000185844
0.00220444
-0.00023624
0.00249364
-0.000288987
0.00282474
-0.000330885
0.00315909
-0.000334126
0.00340445
-0.00024514
0.00336854
3.61405e-05
0.00283131
0.000537451
0.00155872
0.0012728
0.00155884
0.000288243
-0.000485286
0.000808755
-0.000841638
0.00134508
-0.000846103
0.00180072
-0.000702845
0.00215488
-0.000533412
0.00242324
-0.000396773
0.00263444
-0.000312851
0.00281742
-0.000280902
0.00299577
-0.000291587
0.00318573
-0.000333523
0.00339556
-0.000395429
0.00362402
-0.000464449
0.00385607
-0.000520773
0.00405404
-0.000528599
0.0041446
-0.000424417
0.00400824
-0.000108511
0.00350067
0.000543979
0.00245544
0.00158295
0.00100558
0.00272289
0.00256453
0.000330989
-0.000816211
0.000897375
-0.00140785
0.00146785
-0.00141633
0.00194632
-0.00118102
0.00231451
-0.000901298
0.00258933
-0.000671278
0.00279796
-0.000521166
0.00296572
-0.000448352
0.00311134
-0.000436889
0.00324583
-0.000467697
0.00337236
-0.000521651
0.00348505
-0.000576823
0.00356515
-0.000600546
0.00357443
-0.000537558
0.00344891
-0.000298566
0.00310135
0.000239376
0.00246087
0.00118478
0.00153176
0.00251237
0.000532271
0.00372263
0.00309693
0.000325558
-0.00114169
0.000852982
-0.00193505
0.00135292
-0.00191596
0.00174598
-0.00157372
0.00202866
-0.0011836
0.00222513
-0.000867375
0.00236275
-0.000658401
0.00246252
-0.000547747
0.00253753
-0.000511533
0.00259434
-0.000524136
0.00263432
-0.000561259
0.00265316
-0.000595291
0.00263755
-0.000584566
0.00255979
-0.000459416
0.00237489
-0.000113287
0.00203061
0.000584027
0.00150158
0.00171418
0.000838361
0.00317593
0.000233512
0.00432776
0.00333056
0.000289063
-0.00143066
0.000709905
-0.00235564
0.00106217
-0.00226788
0.00130018
-0.00181132
0.00144289
-0.00132589
0.00152269
-0.000946756
0.00156505
-0.000700347
0.00158477
-0.00056706
0.00158888
-0.000515245
0.0015805
-0.00051535
0.00156076
-0.000541122
0.00152796
-0.000562095
0.00147416
-0.000530358
0.00138102
-0.00036586
0.00121794
5.02044e-05
0.000960146
0.000842239
0.000612079
0.00206264
0.00024646
0.00354191
9.65592e-06
0.00456485
0.00334034
0.000213511
-0.00164407
0.00044998
-0.00259184
0.000575376
-0.00239289
0.000599626
-0.00183514
0.000566535
-0.00129236
0.000510737
-0.000890525
0.000449452
-0.000638639
0.000387999
-0.000505193
0.000327014
-0.000453849
0.000266637
-0.000454565
0.000206867
-0.000480943
0.000145257
-0.000500072
7.43697e-05
-0.000459052
-1.74793e-05
-0.000273585
-0.000137347
0.000170511
-0.000273169
0.0009785
-0.000382887
0.00217278
-0.000389339
0.00354874
-0.000228754
0.00440454
0.0031117
6.88849e-05
-0.00171284
6.03417e-06
-0.00252868
-0.00018434
-0.0022021
-0.000426626
-0.00159242
-0.000661476
-0.00105708
-0.000864514
-0.000687062
-0.00103415
-0.000468585
-0.00117719
-0.000361745
-0.00130059
-0.000330046
-0.00140926
-0.000345499
-0.00150715
-0.000382655
-0.00159854
-0.000408277
-0.00168632
-0.000370854
-0.00176488
-0.000194608
-0.00180602
0.000212082
-0.00175421
0.000927116
-0.00153685
0.00195582
-0.00109629
0.00310855
-0.000476764
0.00378528
0.00263504
-0.000189889
-0.00152282
-0.000684445
-0.0020338
-0.00127067
-0.00161547
-0.00180171
-0.00106094
-0.00222769
-0.000630678
-0.00255302
-0.000361319
-0.0028013
-0.000219908
-0.00299733
-0.000165322
-0.0031608
-0.000166192
-0.00330543
-0.00020049
-0.00343943
-0.000248278
-0.00356342
-0.000283909
-0.00366453
-0.00026937
-0.0037072
-0.00015156
-0.00362648
0.000131747
-0.00333395
0.000634955
-0.00274413
0.00136636
-0.00182946
0.0021942
-0.000738228
0.00269428
0.00189691
-0.000587021
-0.000935654
-0.00159337
-0.00102712
-0.00251965
-0.000688776
-0.0032072
-0.000372967
-0.00366993
-0.000167536
-0.00397081
-6.00513e-05
-0.00417239
-1.79481e-05
-0.00432379
-1.35622e-05
-0.00445806
-3.15784e-05
-0.00459467
-6.35387e-05
-0.00474195
-0.000100679
-0.00489327
-0.000132273
-0.00501972
-0.000142607
-0.00506187
-0.0001091
-0.00493292
3.09327e-06
-0.00450667
0.000209003
-0.00367927
0.000539246
-0.00242663
0.000941804
-0.000959706
0.00122755
0.000937283
-0.000935497
-0.00196227
-0.00265064
-0.0030232
-0.00319034
-0.00325001
-0.00326761
-0.00328084
-0.0033121
-0.00337534
-0.00347574
-0.00360775
-0.00375011
-0.00385897
-0.00385566
-0.00364644
-0.003107
-0.00216502
-0.00093734
)
;

boundaryField
{
    leftWall
    {
        type            calculated;
        value           uniform 0;
    }
    rightWall
    {
        type            calculated;
        value           nonuniform List<scalar> 10(0 2.1684e-19 4.33681e-19 0 0 0 0 0 0 0);
    }
    topWall
    {
        type            calculated;
        value           uniform 0;
    }
    bottomWall
    {
        type            calculated;
        value           uniform 0;
    }
    frontAndBackPlanes
    {
        type            empty;
    }
}


// ************************************************************************* //
