/*--------------------------------*- C++ -*----------------------------------*\
| =========                 |                                                 |
| \\      /  F ield         | OpenFOAM: The Open Source CFD Toolbox           |
|  \\    /   O peration     | Version:  2506                                  |
|   \\  /    A nd           | Website:  www.openfoam.com                      |
|    \\/     M anipulation  |                                                 |
\*---------------------------------------------------------------------------*/
FoamFile
{
    version     2.0;
    format      ascii;
    arch        "LSB;label=32;scalar=64";
    class       volScalarField;
    location    "8";
    object      T;
}
// * * * * * * * * * * * * * * * * * * * * * * * * * * * * * * * * * * * * * //

dimensions      [0 0 0 1 0 0 0];

internalField   nonuniform List<scalar> 
200
(
273.15
273.149
273.149
273.149
273.149
273.149
273.149
273.149
273.149
273.149
273.149
273.149
273.149
273.149
273.15
273.153
273.168
273.217
273.372
273.768
273.149
273.147
273.145
273.145
273.145
273.145
273.144
273.144
273.144
273.144
273.144
273.144
273.144
273.145
273.146
273.149
273.164
273.219
273.386
273.795
273.147
273.143
273.14
273.139
273.139
273.139
273.139
273.139
273.139
273.139
273.139
273.139
273.139
273.139
273.14
273.145
273.163
273.226
273.41
273.822
273.146
273.139
273.135
273.133
273.133
273.132
273.132
273.132
273.132
273.132
273.132
273.132
273.132
273.133
273.134
273.14
273.161
273.233
273.43
273.841
273.144
273.135
273.129
273.127
273.126
273.126
273.126
273.126
273.126
273.126
273.126
273.126
273.126
273.126
273.128
273.135
273.16
273.239
273.445
273.854
273.143
273.131
273.124
273.121
273.12
273.12
273.12
273.12
273.12
273.12
273.12
273.12
273.12
273.12
273.122
273.13
273.159
273.244
273.457
273.864
273.141
273.127
273.119
273.115
273.114
273.114
273.114
273.114
273.114
273.114
273.114
273.114
273.114
273.115
273.119
273.131
273.166
273.258
273.472
273.868
273.139
273.123
273.113
273.109
273.108
273.107
273.107
273.107
273.107
273.107
273.108
273.108
273.109
273.112
273.12
273.14
273.187
273.288
273.496
273.874
273.138
273.119
273.108
273.103
273.102
273.101
273.101
273.101
273.101
273.101
273.102
273.102
273.105
273.112
273.129
273.166
273.233
273.346
273.542
273.884
273.137
273.116
273.104
273.099
273.097
273.096
273.096
273.096
273.096
273.096
273.096
273.097
273.101
273.111
273.137
273.19
273.28
273.412
273.603
273.9
)
;

boundaryField
{
    leftWall
    {
        type            fixedValue;
        value           uniform 273.15;
    }
    rightWall
    {
        type            customNeumannDirichletCoupledBoundary;
        refValue        nonuniform List<scalar> 10(274.123 274.124 274.126 274.127 274.128 274.128 274.129 274.129 274.13 274.13);
        refGradient     uniform 0;
        valueFraction   uniform 1;
        source          uniform 0;
        value           nonuniform List<scalar> 10(274.123 274.124 274.126 274.127 274.128 274.128 274.129 274.129 274.13 274.13);
        kappaMethod     fluidThermo;
    }
    topWall
    {
        type            zeroGradient;
    }
    bottomWall
    {
        type            zeroGradient;
    }
    frontAndBackPlanes
    {
        type            empty;
    }
}


// ************************************************************************* //
