/*--------------------------------*- C++ -*----------------------------------*\
| =========                 |                                                 |
| \\      /  F ield         | OpenFOAM: The Open Source CFD Toolbox           |
|  \\    /   O peration     | Version:  2506                                  |
|   \\  /    A nd           | Website:  www.openfoam.com                      |
|    \\/     M anipulation  |                                                 |
\*---------------------------------------------------------------------------*/
FoamFile
{
    version     2.0;
    format      ascii;
    arch        "LSB;label=32;scalar=64";
    class       volVectorField;
    location    "8";
    object      U;
}
// * * * * * * * * * * * * * * * * * * * * * * * * * * * * * * * * * * * * * //

dimensions      [0 1 -1 0 0 0 0];

internalField   nonuniform List<vector> 
200
(
(-0.000283679 -0.000169229 0)
(-0.000360393 -0.000229938 0)
(-9.69024e-05 -0.000208285 0)
(0.000282837 -0.000232713 0)
(0.000693915 -0.000266865 0)
(0.00118489 -0.000304107 0)
(0.00176162 -0.000351623 0)
(0.0024342 -0.000415018 0)
(0.00322092 -0.000499117 0)
(0.00414525 -0.000608836 0)
(0.00523245 -0.000748491 0)
(0.00650462 -0.000919523 0)
(0.0079718 -0.00111568 0)
(0.00961481 -0.00131332 0)
(0.0113496 -0.00145096 0)
(0.0129453 -0.00138291 0)
(0.0138616 -0.000779546 0)
(0.0131797 0.00097652 0)
(0.009806 0.00423622 0)
(0.00306115 0.00646843 0)
(-3.6031e-05 -0.000266619 0)
(-1.23227e-06 -0.000655955 0)
(0.000287959 -0.000983696 0)
(0.000757658 -0.0013058 0)
(0.00138194 -0.0016009 0)
(0.00214962 -0.00189263 0)
(0.0030558 -0.00220856 0)
(0.0041035 -0.00257072 0)
(0.00530102 -0.00299412 0)
(0.00665627 -0.00348431 0)
(0.00816901 -0.00403101 0)
(0.0098192 -0.00459532 0)
(0.0115487 -0.00508677 0)
(0.013234 -0.00532401 0)
(0.0146478 -0.00496833 0)
(0.0154099 -0.00342052 0)
(0.0149307 0.000283413 0)
(0.0124197 0.00720907 0)
(0.00762388 0.0164163 0)
(0.00140093 0.0183913 0)
(-6.69781e-06 -0.000227499 0)
(6.45357e-05 -0.000956879 0)
(0.000333621 -0.0017194 0)
(0.000779119 -0.00240868 0)
(0.00137713 -0.0030233 0)
(0.00210968 -0.00360505 0)
(0.00296695 -0.00419839 0)
(0.00394505 -0.00483507 0)
(0.00504144 -0.00552866 0)
(0.00624873 -0.00626836 0)
(0.00754655 -0.00700665 0)
(0.00889028 -0.00763756 0)
(0.0101956 -0.00796166 0)
(0.0113189 -0.0076332 0)
(0.0120357 -0.0060874 0)
(0.0120241 -0.00246843 0)
(0.0108623 0.00431355 0)
(0.00828038 0.0148033 0)
(0.00452429 0.0262698 0)
(0.00065234 0.0250721 0)
(-1.41985e-05 -0.000271596 0)
(1.9894e-05 -0.00128658 0)
(0.000200998 -0.00237271 0)
(0.000515971 -0.00335743 0)
(0.000949873 -0.00422943 0)
(0.00148607 -0.00504098 0)
(0.00211397 -0.00584811 0)
(0.00282811 -0.00668755 0)
(0.00362406 -0.00756764 0)
(0.00449303 -0.00845905 0)
(0.00541511 -0.0092781 0)
(0.00635026 -0.00985954 0)
(0.00722689 -0.00991607 0)
(0.00792913 -0.00898469 0)
(0.00828683 -0.00636754 0)
(0.00807754 -0.00111006 0)
(0.00705392 0.00780526 0)
(0.00512837 0.0204431 0)
(0.00259178 0.0327125 0)
(0.000317895 0.0287247 0)
(-1.9875e-05 -0.000230702 0)
(-6.84491e-05 -0.00140182 0)
(-3.26648e-05 -0.00271449 0)
(9.06673e-05 -0.00391372 0)
(0.000291017 -0.0049679 0)
(0.000553917 -0.00593626 0)
(0.000871672 -0.00688634 0)
(0.0012428 -0.0078617 0)
(0.0016692 -0.00886942 0)
(0.00215215 -0.0098682 0)
(0.00268706 -0.0107485 0)
(0.00325617 -0.0113012 0)
(0.00381868 -0.0111736 0)
(0.00429905 -0.00981869 0)
(0.00457945 -0.00645395 0)
(0.00451003 -8.63372e-05 0)
(0.0039273 0.0101926 0)
(0.0027906 0.024077 0)
(0.0013258 0.0365825 0)
(0.000138357 0.0306628 0)
(-3.1706e-05 -7.85488e-05 0)
(-0.000175879 -0.00125981 0)
(-0.000299536 -0.00268629 0)
(-0.00039408 -0.00400192 0)
(-0.000463548 -0.0051495 0)
(-0.000517988 -0.0061938 0)
(-0.000560917 -0.00721638 0)
(-0.000587024 -0.00827325 0)
(-0.000583659 -0.00937881 0)
(-0.000533255 -0.0104917 0)
(-0.00041681 -0.0114915 0)
(-0.000219814 -0.0121416 0)
(5.80908e-05 -0.0120386 0)
(0.000388718 -0.010558 0)
(0.000704067 -0.00683433 0)
(0.000901676 0.000168071 0)
(0.000862195 0.0112699 0)
(0.000576332 0.0258648 0)
(0.000175629 0.038404 0)
(-2.27276e-05 0.0314048 0)
(-4.09083e-05 0.000180155 0)
(-0.00025888 -0.000858877 0)
(-0.000521567 -0.00227337 0)
(-0.000825234 -0.00358851 0)
(-0.00117219 -0.00471732 0)
(-0.00156909 -0.00573321 0)
(-0.00201514 -0.00673633 0)
(-0.00249948 -0.00780154 0)
(-0.00300119 -0.00896026 0)
(-0.00348882 -0.010185 0)
(-0.00392005 -0.011362 0)
(-0.00424406 -0.012247 0)
(-0.00440943 -0.0124048 0)
(-0.00437876 -0.0111483 0)
(-0.00414339 -0.00752329 0)
(-0.00372014 -0.00043484 0)
(-0.00313871 0.0108713 0)
(-0.00236366 0.025536 0)
(-0.00136431 0.0378579 0)
(-0.000235784 0.0307846 0)
(-3.53184e-05 0.000487412 0)
(-0.00024244 -0.000288492 0)
(-0.000563798 -0.00154534 0)
(-0.0010186 -0.00270019 0)
(-0.00160894 -0.00365139 0)
(-0.0023336 -0.00448723 0)
(-0.00318718 -0.00532627 0)
(-0.00416068 -0.00626212 0)
(-0.0052394 -0.00734874 0)
(-0.00639734 -0.0085876 0)
(-0.00758917 -0.00989916 0)
(-0.00874258 -0.0110705 0)
(-0.00975474 -0.01168 0)
(-0.0104953 -0.0110215 0)
(-0.0108097 -0.00809059 0)
(-0.010503 -0.00175703 0)
(-0.0093213 0.00868814 0)
(-0.00711624 0.0222973 0)
(-0.00402384 0.033846 0)
(-0.000674744 0.0279457 0)
(1.56919e-05 0.00066448 0)
(-1.15459e-06 0.000184022 0)
(-0.000235613 -0.000732723 0)
(-0.000719715 -0.0015208 0)
(-0.00143733 -0.0021116 0)
(-0.00235863 -0.00260437 0)
(-0.00346933 -0.00311488 0)
(-0.00477512 -0.00373437 0)
(-0.00629477 -0.00452657 0)
(-0.00804873 -0.00552337 0)
(-0.0100433 -0.00670235 0)
(-0.0122481 -0.00793622 0)
(-0.014565 -0.00891237 0)
(-0.0167864 -0.00904756 0)
(-0.0185492 -0.00747205 0)
(-0.0192849 -0.00319386 0)
(-0.018144 0.00446051 0)
(-0.0144619 0.0148694 0)
(-0.00849746 0.0242626 0)
(-0.00154676 0.0211615 0)
(0.000147359 0.000326192 0)
(0.000391071 0.000172285 0)
(0.000343878 -9.65379e-05 0)
(8.32308e-06 -0.000287056 0)
(-0.000538965 -0.000400616 0)
(-0.00123457 -0.00048308 0)
(-0.00206536 -0.000574548 0)
(-0.00305661 -0.000703769 0)
(-0.00426062 -0.000893319 0)
(-0.0057491 -0.00116226 0)
(-0.00760435 -0.00152174 0)
(-0.00989871 -0.00195906 0)
(-0.0126493 -0.00240574 0)
(-0.0157343 -0.00269735 0)
(-0.0187685 -0.00255408 0)
(-0.0209835 -0.00161742 0)
(-0.0212388 0.000456185 0)
(-0.0183588 0.00378614 0)
(-0.0120456 0.00742547 0)
(-0.00339913 0.00756233 0)
)
;

boundaryField
{
    leftWall
    {
        type            fixedValue;
        value           uniform (0 0 0);
    }
    rightWall
    {
        type            fixedValue;
        value           uniform (0 0 0);
    }
    topWall
    {
        type            fixedValue;
        value           uniform (0 0 0);
    }
    bottomWall
    {
        type            fixedValue;
        value           uniform (0 0 0);
    }
    frontAndBackPlanes
    {
        type            empty;
    }
}


// ************************************************************************* //
