/*--------------------------------*- C++ -*----------------------------------*\
| =========                 |                                                 |
| \\      /  F ield         | OpenFOAM: The Open Source CFD Toolbox           |
|  \\    /   O peration     | Version:  2506                                  |
|   \\  /    A nd           | Website:  www.openfoam.com                      |
|    \\/     M anipulation  |                                                 |
\*---------------------------------------------------------------------------*/
FoamFile
{
    version     2.0;
    format      ascii;
    arch        "LSB;label=32;scalar=64";
    class       volVectorField;
    location    "69.8";
    object      U;
}
// * * * * * * * * * * * * * * * * * * * * * * * * * * * * * * * * * * * * * //

dimensions      [0 1 -1 0 0 0 0];

internalField   nonuniform List<vector> 
200
(
(8.157e-05 -0.000550984 0)
(0.00100978 -0.000778909 0)
(0.0022583 -0.00065498 0)
(0.00342192 -0.000460952 0)
(0.00430654 -0.00029282 0)
(0.00495882 -0.000187056 0)
(0.00546375 -0.000151181 0)
(0.00591292 -0.000177312 0)
(0.00638873 -0.000254617 0)
(0.00695982 -0.000376023 0)
(0.00768241 -0.000539835 0)
(0.00860183 -0.000746931 0)
(0.00974742 -0.000992415 0)
(0.0111138 -0.00124906 0)
(0.0126145 -0.00143882 0)
(0.0139796 -0.00138165 0)
(0.0145944 -0.00070622 0)
(0.0135147 0.00117854 0)
(0.00975625 0.00440263 0)
(0.00296032 0.00626345 0)
(0.000289659 -0.00247615 0)
(0.00205234 -0.00428978 0)
(0.0041972 -0.00434589 0)
(0.00624073 -0.00366099 0)
(0.00792077 -0.00283247 0)
(0.00922627 -0.00217158 0)
(0.0102515 -0.00179311 0)
(0.0111132 -0.00170358 0)
(0.011916 -0.00186367 0)
(0.0127395 -0.00222324 0)
(0.0136344 -0.00273239 0)
(0.0146182 -0.00333071 0)
(0.0156629 -0.00391324 0)
(0.0166664 -0.00426951 0)
(0.0174064 -0.00399572 0)
(0.0174848 -0.0023951 0)
(0.0162715 0.00154923 0)
(0.0130252 0.00863645 0)
(0.00765941 0.0173598 0)
(0.00132683 0.0180256 0)
(0.000355645 -0.00493814 0)
(0.00240036 -0.00872448 0)
(0.00475711 -0.00900458 0)
(0.00695672 -0.00773 0)
(0.00873616 -0.00610508 0)
(0.0100925 -0.00473624 0)
(0.0111247 -0.00384568 0)
(0.0119437 -0.0034467 0)
(0.0126393 -0.00345986 0)
(0.0132716 -0.00377636 0)
(0.0138699 -0.00427803 0)
(0.0144308 -0.00481915 0)
(0.0149074 -0.00517128 0)
(0.0151861 -0.00493499 0)
(0.0150539 -0.00343984 0)
(0.0141612 0.000296656 0)
(0.0121158 0.00729201 0)
(0.00872699 0.0176437 0)
(0.00442531 0.0279145 0)
(0.000543776 0.0245486 0)
(0.00036946 -0.00762439 0)
(0.00239364 -0.0133109 0)
(0.00457429 -0.0135896 0)
(0.00648861 -0.011554 0)
(0.00793521 -0.00903811 0)
(0.00895813 -0.00691812 0)
(0.00967494 -0.00548504 0)
(0.0101916 -0.00472795 0)
(0.01058 -0.00451185 0)
(0.0108809 -0.00466967 0)
(0.0111117 -0.00502793 0)
(0.0112687 -0.00537744 0)
(0.0113192 -0.00539634 0)
(0.011182 -0.00454186 0)
(0.010702 -0.0019623 0)
(0.0096258 0.00344119 0)
(0.00777328 0.0124765 0)
(0.00513097 0.02458 0)
(0.00220226 0.0348121 0)
(0.000151229 0.0278036 0)
(0.000358439 -0.010203 0)
(0.00212448 -0.01739 0)
(0.00380883 -0.0173451 0)
(0.00511229 -0.0144028 0)
(0.00595213 -0.0110011 0)
(0.00643786 -0.00821359 0)
(0.0067021 -0.00633296 0)
(0.00683603 -0.0052841 0)
(0.00688785 -0.00486647 0)
(0.00688011 -0.00486755 0)
(0.00682369 -0.0050837 0)
(0.00672041 -0.00527126 0)
(0.00655362 -0.00504501 0)
(0.00627052 -0.00375489 0)
(0.0057626 -0.000420196 0)
(0.00487168 0.00607952 0)
(0.00355071 0.0163232 0)
(0.00191158 0.0291234 0)
(0.000395641 0.0385685 0)
(-0.00013543 0.0289002 0)
(0.00030893 -0.0123968 0)
(0.00152225 -0.0203931 0)
(0.00235102 -0.0196567 0)
(0.00272529 -0.0157675 0)
(0.00273886 -0.0116402 0)
(0.00256067 -0.00841143 0)
(0.00231024 -0.00629015 0)
(0.00204132 -0.005107 0)
(0.00176935 -0.0046038 0)
(0.00149836 -0.0045456 0)
(0.00123118 -0.00471878 0)
(0.000964625 -0.00485574 0)
(0.000678907 -0.00451661 0)
(0.000334009 -0.00297101 0)
(-0.000138301 0.000826679 0)
(-0.000728272 0.00790062 0)
(-0.00131187 0.0185323 0)
(-0.00163979 0.0310165 0)
(-0.00141338 0.0391368 0)
(-0.000363354 0.0280835 0)
(0.000189486 -0.0137554 0)
(0.000387281 -0.0215018 0)
(-0.000115392 -0.0197486 0)
(-0.00101359 -0.0150772 0)
(-0.00200942 -0.0106054 0)
(-0.00293395 -0.00732556 0)
(-0.00373168 -0.00527392 0)
(-0.0044107 -0.00418219 0)
(-0.00499692 -0.00376152 0)
(-0.00551235 -0.00377593 0)
(-0.00597403 -0.00400559 0)
(-0.00640124 -0.00415738 0)
(-0.00681589 -0.00376105 0)
(-0.00722142 -0.00210008 0)
(-0.00755747 0.00173427 0)
(-0.00761347 0.00852586 0)
(-0.00709142 0.0183407 0)
(-0.00570354 0.0294046 0)
(-0.00345244 0.0360039 0)
(-0.000648288 0.0251592 0)
(-8.86625e-05 -0.0134732 0)
(-0.00158428 -0.0194897 0)
(-0.00389806 -0.0166547 0)
(-0.00627881 -0.0118208 0)
(-0.00830633 -0.00769919 0)
(-0.00989907 -0.00491227 0)
(-0.011126 -0.00330546 0)
(-0.01209 -0.00255558 0)
(-0.0128819 -0.00238221 0)
(-0.0135695 -0.00257038 0)
(-0.0142003 -0.00291569 0)
(-0.0147984 -0.00314625 0)
(-0.0153481 -0.00285287 0)
(-0.0157563 -0.00146193 0)
(-0.015794 0.00169774 0)
(-0.0150875 0.00717888 0)
(-0.0132279 0.0149882 0)
(-0.00995678 0.0236768 0)
(-0.0055894 0.0287251 0)
(-0.000961353 0.0199588 0)
(-0.000658514 -0.0104339 0)
(-0.00443306 -0.0133231 0)
(-0.00855542 -0.0100648 0)
(-0.012012 -0.00617949 0)
(-0.0144608 -0.00334306 0)
(-0.0160836 -0.0016832 0)
(-0.0171661 -0.000902142 0)
(-0.017945 -0.00069197 0)
(-0.0185883 -0.000833344 0)
(-0.0192057 -0.00117817 0)
(-0.0198601 -0.00159795 0)
(-0.0205619 -0.00192847 0)
(-0.0212445 -0.00192776 0)
(-0.0217304 -0.00126037 0)
(-0.0216894 0.000480537 0)
(-0.0205993 0.00369267 0)
(-0.0179259 0.00846665 0)
(-0.0133654 0.0139857 0)
(-0.00739604 0.0174968 0)
(-0.00126957 0.0125459 0)
(-0.00164023 -0.0035243 0)
(-0.0060749 -0.00348713 0)
(-0.00968551 -0.00198886 0)
(-0.0119848 -0.000775155 0)
(-0.0131478 -0.00010368 0)
(-0.0136398 0.000178713 0)
(-0.0138233 0.00023834 0)
(-0.0139152 0.000181213 0)
(-0.0140395 6.37177e-05 0)
(-0.0142716 -8.76766e-05 0)
(-0.0146549 -0.000258994 0)
(-0.0151955 -0.00043202 0)
(-0.0158445 -0.000570751 0)
(-0.0164661 -0.000610669 0)
(-0.0167936 -0.000443679 0)
(-0.0164345 0.000101286 0)
(-0.0148503 0.00117922 0)
(-0.0115803 0.00274096 0)
(-0.00684086 0.00414766 0)
(-0.00165104 0.00355426 0)
)
;

boundaryField
{
    leftWall
    {
        type            fixedValue;
        value           uniform (0 0 0);
    }
    rightWall
    {
        type            fixedValue;
        value           uniform (0 0 0);
    }
    topWall
    {
        type            fixedValue;
        value           uniform (0 0 0);
    }
    bottomWall
    {
        type            fixedValue;
        value           uniform (0 0 0);
    }
    frontAndBackPlanes
    {
        type            empty;
    }
}


// ************************************************************************* //
