/*--------------------------------*- C++ -*----------------------------------*\
| =========                 |                                                 |
| \\      /  F ield         | OpenFOAM: The Open Source CFD Toolbox           |
|  \\    /   O peration     | Version:  2506                                  |
|   \\  /    A nd           | Website:  www.openfoam.com                      |
|    \\/     M anipulation  |                                                 |
\*---------------------------------------------------------------------------*/
FoamFile
{
    version     2.0;
    format      ascii;
    arch        "LSB;label=32;scalar=64";
    class       volScalarField;
    location    "63.2";
    object      T;
}
// * * * * * * * * * * * * * * * * * * * * * * * * * * * * * * * * * * * * * //

dimensions      [0 0 0 1 0 0 0];

internalField   nonuniform List<scalar> 
200
(
273.153
273.158
273.162
273.164
273.166
273.167
273.167
273.168
273.168
273.169
273.169
273.17
273.171
273.173
273.176
273.184
273.207
273.27
273.433
273.808
273.156
273.168
273.178
273.184
273.187
273.189
273.189
273.19
273.19
273.191
273.191
273.192
273.193
273.193
273.194
273.198
273.217
273.279
273.451
273.834
273.163
273.187
273.206
273.218
273.224
273.227
273.228
273.227
273.227
273.227
273.227
273.226
273.225
273.222
273.22
273.221
273.24
273.308
273.49
273.867
273.172
273.212
273.242
273.261
273.271
273.275
273.275
273.274
273.272
273.27
273.269
273.266
273.262
273.255
273.249
273.248
273.269
273.343
273.534
273.898
273.182
273.24
273.283
273.31
273.323
273.327
273.327
273.324
273.322
273.319
273.316
273.311
273.303
273.292
273.281
273.28
273.304
273.387
273.583
273.928
273.193
273.271
273.328
273.362
273.377
273.382
273.381
273.379
273.377
273.374
273.371
273.365
273.355
273.341
273.328
273.329
273.361
273.452
273.642
273.953
273.205
273.305
273.376
273.417
273.435
273.441
273.442
273.442
273.443
273.443
273.442
273.438
273.43
273.42
273.413
273.419
273.454
273.54
273.709
273.978
273.22
273.344
273.426
273.471
273.494
273.506
273.514
273.521
273.528
273.535
273.539
273.541
273.54
273.539
273.539
273.548
273.579
273.651
273.788
274.007
273.237
273.38
273.471
273.524
273.555
273.577
273.595
273.61
273.625
273.639
273.652
273.663
273.673
273.682
273.691
273.703
273.729
273.783
273.881
274.041
273.249
273.4
273.495
273.552
273.59
273.617
273.641
273.662
273.683
273.704
273.725
273.746
273.766
273.787
273.809
273.831
273.86
273.903
273.971
274.076
)
;

boundaryField
{
    leftWall
    {
        type            fixedValue;
        value           uniform 273.15;
    }
    rightWall
    {
        type            customNeumannDirichletCoupledBoundary;
        refValue        nonuniform List<scalar> 10(274.126 274.128 274.129 274.131 274.133 274.135 274.137 274.139 274.141 274.143);
        refGradient     uniform 0;
        valueFraction   uniform 1;
        source          uniform 0;
        value           nonuniform List<scalar> 10(274.126 274.128 274.129 274.131 274.133 274.135 274.137 274.139 274.141 274.143);
        kappaMethod     fluidThermo;
    }
    topWall
    {
        type            zeroGradient;
    }
    bottomWall
    {
        type            zeroGradient;
    }
    frontAndBackPlanes
    {
        type            empty;
    }
}


// ************************************************************************* //
