/*--------------------------------*- C++ -*----------------------------------*\
| =========                 |                                                 |
| \\      /  F ield         | OpenFOAM: The Open Source CFD Toolbox           |
|  \\    /   O peration     | Version:  2506                                  |
|   \\  /    A nd           | Website:  www.openfoam.com                      |
|    \\/     M anipulation  |                                                 |
\*---------------------------------------------------------------------------*/
FoamFile
{
    version     2.0;
    format      ascii;
    arch        "LSB;label=32;scalar=64";
    class       surfaceScalarField;
    location    "6.8";
    object      phi;
}
// * * * * * * * * * * * * * * * * * * * * * * * * * * * * * * * * * * * * * //

dimensions      [1 0 -1 0 0 0 0];

oriented        oriented;

internalField   nonuniform List<scalar> 
370
(
-0.000108355
-3.41064e-05
-5.58737e-05
-5.24948e-05
7.09359e-06
-6.29882e-05
8.56922e-05
-7.8624e-05
0.000178436
-9.27714e-05
0.000285887
-0.000107479
0.000410509
-0.000124651
0.000556091
-0.000145611
0.000727583
-0.000171522
0.000930964
-0.000203412
0.00117278
-0.000241848
0.00145892
-0.000286166
0.00179188
-0.000332997
0.00216491
-0.000373055
0.00255038
-0.000385457
0.00287823
-0.000327744
0.00299249
-0.000113849
0.00264801
0.000345521
0.00155497
0.00109488
0.00155654
-1.24008e-05
-2.16923e-05
1.52951e-05
-8.01719e-05
8.62007e-05
-0.000133886
0.000189822
-0.000182249
0.000322856
-0.000225814
0.000483473
-0.000268108
0.000671732
-0.000312922
0.000889225
-0.000363118
0.00113828
-0.000420596
0.00142092
-0.000486067
0.00173719
-0.000558126
0.00208233
-0.000631323
0.00244203
-0.000692706
0.00278494
-0.000715971
0.00305159
-0.000652081
0.00314018
-0.000416199
0.00290813
0.000118639
0.00217338
0.00108142
0.000951414
0.00231889
0.00250964
-1.01257e-06
-2.06469e-05
2.53228e-05
-0.000106456
8.85764e-05
-0.000197108
0.00018404
-0.000277701
0.000307158
-0.000348932
0.000455351
-0.000416305
0.000627468
-0.000485044
0.000823098
-0.000558754
0.00104169
-0.00063919
0.00128133
-0.000725721
0.00153708
-0.000813881
0.00179837
-0.00089262
0.0020454
-0.000939735
0.00224435
-0.00091492
0.00234249
-0.000750178
0.00226662
-0.000340143
0.00193349
0.000452366
0.00130514
0.00171129
0.000505364
0.00312127
0.00301706
-5.1683e-06
-1.54276e-05
9.69199e-06
-0.000121234
5.14347e-05
-0.000238797
0.000117784
-0.000344028
0.00020493
-0.000436071
0.00031012
-0.000521495
0.000431795
-0.000606721
0.000568986
-0.000695948
0.00072052
-0.000790728
0.000884037
-0.00088924
0.00105467
-0.000984514
0.00122323
-0.00106118
0.00137391
-0.00109041
0.00148171
-0.00102271
0.00151086
-0.000779271
0.00141719
-0.000246231
0.00116124
0.000709095
0.000741918
0.00213256
0.000263915
0.00360254
0.00328346
-1.37275e-05
-1.63137e-06
-1.95924e-05
-0.000115259
-8.4604e-06
-0.000249856
1.85631e-05
-0.00037102
5.81576e-05
-0.000475656
0.000107812
-0.000571147
0.000166335
-0.000665244
0.0002335
-0.000763112
0.000309456
-0.000866684
0.000394032
-0.000973816
0.000485797
-0.00107628
0.000580758
-0.00115615
0.000670609
-0.00118026
0.000740756
-0.00109284
0.000768951
-0.00080739
0.000727344
-0.000204327
0.000592939
0.000844456
0.000369233
0.00235861
0.000122667
0.00385298
0.00340899
-2.30198e-05
2.14738e-05
-5.2268e-05
-8.58726e-05
-7.49936e-05
-0.000227039
-9.16384e-05
-0.000354335
-0.000105307
-0.000461973
-0.000118075
-0.000558373
-0.000130297
-0.000653018
-0.000140774
-0.000752632
-0.000147068
-0.000860387
-0.000145844
-0.000975038
-0.000133379
-0.00108874
-0.00010651
-0.00118301
-6.43471e-05
-0.00122242
-1.08353e-05
-0.00114633
4.27626e-05
-0.000860885
7.83726e-05
-0.000239563
7.82464e-05
0.000845734
4.37419e-05
0.00239586
6.15587e-06
0.003895
0.00341835
-2.994e-05
5.15156e-05
-7.69903e-05
-3.86578e-05
-0.000129604
-0.000174316
-0.000188889
-0.000295002
-0.000257827
-0.000393016
-0.000337863
-0.000478329
-0.000428474
-0.000562402
-0.000527327
-0.000653774
-0.000630243
-0.000757466
-0.000730903
-0.000874371
-0.000820529
-0.000999109
-0.000887953
-0.00111558
-0.000920726
-0.00118963
-0.0009079
-0.00115909
-0.000844195
-0.000924373
-0.00073298
-0.000350141
-0.000580683
0.000695058
-0.0003865
0.00220505
-0.000159278
0.00367279
0.0032625
-2.52347e-05
7.68688e-05
-7.27861e-05
9.08587e-06
-0.000142366
-0.000104609
-0.000236453
-0.000200857
-0.000356696
-0.000272752
-0.000502803
-0.00033221
-0.00067365
-0.000391547
-0.000867549
-0.000459865
-0.00108165
-0.000543353
-0.00131065
-0.000645358
-0.00154495
-0.000764792
-0.00176858
-0.000891931
-0.00195743
-0.00100072
-0.00207902
-0.00103732
-0.00209482
-0.00090806
-0.00196495
-0.000478743
-0.00165222
0.000384931
-0.00112959
0.00168685
-0.000464414
0.0030133
0.00280174
7.46671e-06
6.95411e-05
-9.16449e-06
2.59426e-05
-7.24188e-05
-4.12018e-05
-0.000183655
-8.95484e-05
-0.000336025
-0.000120349
-0.00052429
-0.000143927
-0.000747268
-0.000168552
-0.0010072
-0.000199915
-0.00130822
-0.00024231
-0.00165436
-0.000299203
-0.00204638
-0.000372742
-0.00247715
-0.000461101
-0.00292429
-0.000553446
-0.00333974
-0.000621436
-0.00363806
-0.000608579
-0.00368911
-0.000425136
-0.00334787
4.81163e-05
-0.00242486
0.000769977
-0.00104584
0.00164091
0.00175987
6.97023e-05
9.59153e-05
5.49092e-05
-3.45353e-05
-0.000154829
-0.000298717
-0.000467234
-0.000667115
-0.000909388
-0.00120855
-0.00158125
-0.00204228
-0.00259553
-0.00321635
-0.00382323
-0.00424466
-0.0041904
-0.00341263
-0.00176422
)
;

boundaryField
{
    leftWall
    {
        type            calculated;
        value           nonuniform List<scalar> 10(5.29396e-23 0 0 0 0 0 0 0 -5.42101e-20 0);
    }
    rightWall
    {
        type            calculated;
        value           nonuniform List<scalar> 10(0 0 0 0 0 0 0 0 0 1.73472e-18);
    }
    topWall
    {
        type            calculated;
        value           uniform 0;
    }
    bottomWall
    {
        type            calculated;
        value           uniform 0;
    }
    frontAndBackPlanes
    {
        type            empty;
    }
}


// ************************************************************************* //
