/*--------------------------------*- C++ -*----------------------------------*\
| =========                 |                                                 |
| \\      /  F ield         | OpenFOAM: The Open Source CFD Toolbox           |
|  \\    /   O peration     | Version:  2506                                  |
|   \\  /    A nd           | Website:  www.openfoam.com                      |
|    \\/     M anipulation  |                                                 |
\*---------------------------------------------------------------------------*/
FoamFile
{
    version     2.0;
    format      ascii;
    arch        "LSB;label=32;scalar=64";
    class       volVectorField;
    location    "63.8";
    object      U;
}
// * * * * * * * * * * * * * * * * * * * * * * * * * * * * * * * * * * * * * //

dimensions      [0 1 -1 0 0 0 0];

internalField   nonuniform List<vector> 
200
(
(2.3185e-05 -0.00046334 0)
(0.000804619 -0.000674651 0)
(0.00193798 -0.000590024 0)
(0.0030343 -0.00044322 0)
(0.00390532 -0.000308335 0)
(0.00458434 -0.000219287 0)
(0.00513754 -0.000187927 0)
(0.00564233 -0.000211822 0)
(0.00617323 -0.000284709 0)
(0.00679616 -0.000402593 0)
(0.00756798 -0.000565291 0)
(0.0085361 -0.000773732 0)
(0.00973148 -0.00102182 0)
(0.0111482 -0.00128022 0)
(0.0126966 -0.00146867 0)
(0.014101 -0.00140615 0)
(0.0147385 -0.000721411 0)
(0.0136583 0.00118184 0)
(0.00986764 0.0044399 0)
(0.0029954 0.00633364 0)
(0.000250462 -0.00213941 0)
(0.00183774 -0.00382858 0)
(0.00383017 -0.0040132 0)
(0.00577899 -0.00351871 0)
(0.00743218 -0.00285107 0)
(0.00876432 -0.00229444 0)
(0.00984915 -0.00196794 0)
(0.0107864 -0.00189418 0)
(0.0116694 -0.00205131 0)
(0.0125725 -0.00240292 0)
(0.0135451 -0.00290706 0)
(0.014605 -0.00350508 0)
(0.015724 -0.00408802 0)
(0.0167975 -0.00443738 0)
(0.0175977 -0.0041406 0)
(0.0177177 -0.00249555 0)
(0.0165177 0.00151771 0)
(0.0132417 0.00870454 0)
(0.00779934 0.0175489 0)
(0.00135502 0.0182594 0)
(0.000327126 -0.0043838 0)
(0.00224425 -0.00796064 0)
(0.00449992 -0.00844849 0)
(0.00664634 -0.00748658 0)
(0.00842332 -0.00613158 0)
(0.00981495 -0.00494394 0)
(0.0109044 -0.00415032 0)
(0.0117907 -0.00378794 0)
(0.0125562 -0.00380415 0)
(0.0132574 -0.00411168 0)
(0.0139229 -0.00460515 0)
(0.0145492 -0.00514179 0)
(0.015089 -0.0054868 0)
(0.0154259 -0.00522729 0)
(0.0153407 -0.00367694 0)
(0.0144747 0.000158828 0)
(0.012418 0.00730757 0)
(0.00897164 0.0178546 0)
(0.00457029 0.0283173 0)
(0.000568977 0.024951 0)
(0.000351473 -0.00692848 0)
(0.00231044 -0.0123779 0)
(0.00446076 -0.0129402 0)
(0.00638132 -0.0113057 0)
(0.00786197 -0.00912601 0)
(0.00893295 -0.00722571 0)
(0.00970122 -0.00590628 0)
(0.0102671 -0.00518924 0)
(0.0107009 -0.00497356 0)
(0.0110439 -0.00511834 0)
(0.0113145 -0.00546484 0)
(0.0115102 -0.00580638 0)
(0.0115981 -0.00581189 0)
(0.0114951 -0.00491967 0)
(0.0110413 -0.00225375 0)
(0.00997124 0.00330861 0)
(0.00808923 0.0125808 0)
(0.0053744 0.0249699 0)
(0.00233931 0.035448 0)
(0.000173857 0.0283681 0)
(0.000350973 -0.0094449 0)
(0.00211276 -0.0164293 0)
(0.00383396 -0.0167398 0)
(0.0051967 -0.0142461 0)
(0.00609792 -0.0111956 0)
(0.00663447 -0.00862112 0)
(0.00693515 -0.0068385 0)
(0.0070931 -0.00581409 0)
(0.00716067 -0.00538548 0)
(0.00716437 -0.00536692 0)
(0.00711769 -0.00556824 0)
(0.0070237 -0.00574628 0)
(0.00686583 -0.00550407 0)
(0.00659064 -0.00416855 0)
(0.00608994 -0.000726935 0)
(0.00518769 0.00598417 0)
(0.00382749 0.0165386 0)
(0.00211537 0.0297002 0)
(0.000507532 0.0394258 0)
(-0.000115387 0.0295994 0)
(0.00031089 -0.0116482 0)
(0.00157146 -0.0195281 0)
(0.00248797 -0.019205 0)
(0.00295344 -0.015764 0)
(0.00303348 -0.0119532 0)
(0.00289105 -0.00889338 0)
(0.00265136 -0.00683276 0)
(0.00237742 -0.00564918 0)
(0.00209271 -0.00512175 0)
(0.00180632 -0.00503863 0)
(0.00152357 -0.00519604 0)
(0.0012419 -0.00532433 0)
(0.000940459 -0.00497 0)
(0.000576406 -0.00337679 0)
(8.58261e-05 0.00053908 0)
(-0.000534338 0.00786593 0)
(-0.00116051 0.018863 0)
(-0.00154011 0.031757 0)
(-0.0013684 0.0401618 0)
(-0.000359176 0.0288658 0)
(0.000198305 -0.0130782 0)
(0.000481067 -0.0208221 0)
(9.25313e-05 -0.0195099 0)
(-0.000715541 -0.0152353 0)
(-0.00166775 -0.0110025 0)
(-0.00258804 -0.00782476 0)
(-0.00340756 -0.00579056 0)
(-0.00412173 -0.00467678 0)
(-0.0047479 -0.00422445 0)
(-0.00530367 -0.00421357 0)
(-0.00580465 -0.00442914 0)
(-0.00627053 -0.00457248 0)
(-0.0067249 -0.0041566 0)
(-0.00717329 -0.00243585 0)
(-0.00755597 0.00153806 0)
(-0.00765223 0.00857974 0)
(-0.00715305 0.0187478 0)
(-0.00576612 0.0302023 0)
(-0.00349741 0.0370589 0)
(-0.000659615 0.0259401 0)
(-7.00227e-05 -0.0129142 0)
(-0.0014537 -0.0190408 0)
(-0.00366411 -0.0166082 0)
(-0.0059914 -0.0120767 0)
(-0.00801939 -0.00810186 0)
(-0.00965092 -0.00535264 0)
(-0.0109375 -0.0037282 0)
(-0.0119693 -0.00294235 0)
(-0.0128297 -0.00273506 0)
(-0.0135839 -0.00290007 0)
(-0.0142791 -0.00323309 0)
(-0.0149404 -0.00345435 0)
(-0.0155526 -0.00313839 0)
(-0.0160206 -0.00168768 0)
(-0.0161083 0.00159594 0)
(-0.0154226 0.00728302 0)
(-0.0135424 0.015379 0)
(-0.0102036 0.0243861 0)
(-0.00573326 0.0296417 0)
(-0.000988486 0.0206301 0)
(-0.000625049 -0.0100404 0)
(-0.00426581 -0.0131025 0)
(-0.00831742 -0.0101475 0)
(-0.0117812 -0.00644096 0)
(-0.0142945 -0.00365965 0)
(-0.016009 -0.00198641 0)
(-0.0171897 -0.001167 0)
(-0.0180629 -0.000917359 0)
(-0.0187926 -0.00102886 0)
(-0.0194899 -0.00135633 0)
(-0.0202204 -0.00176879 0)
(-0.0209962 -0.00209504 0)
(-0.0217494 -0.00208197 0)
(-0.0222964 -0.00137979 0)
(-0.0222941 0.000433074 0)
(-0.0212005 0.00376562 0)
(-0.0184668 0.00871664 0)
(-0.0137792 0.0144429 0)
(-0.0076317 0.0180989 0)
(-0.0013124 0.0129991 0)
(-0.00157094 -0.00338234 0)
(-0.00587829 -0.00343744 0)
(-0.0094808 -0.00203664 0)
(-0.0118518 -0.000861431 0)
(-0.0131164 -0.000189407 0)
(-0.0137074 0.00010826 0)
(-0.0139749 0.000185064 0)
(-0.0141356 0.000142233 0)
(-0.0143178 3.43574e-05 0)
(-0.0146014 -0.000112605 0)
(-0.0150331 -0.000283914 0)
(-0.0156218 -0.000459673 0)
(-0.0163186 -0.000601352 0)
(-0.0169842 -0.000641 0)
(-0.0173445 -0.000466622 0)
(-0.0169915 9.72595e-05 0)
(-0.0153662 0.0012166 0)
(-0.0119921 0.00284113 0)
(-0.00709143 0.00430622 0)
(-0.0017149 0.00369391 0)
)
;

boundaryField
{
    leftWall
    {
        type            fixedValue;
        value           uniform (0 0 0);
    }
    rightWall
    {
        type            fixedValue;
        value           uniform (0 0 0);
    }
    topWall
    {
        type            fixedValue;
        value           uniform (0 0 0);
    }
    bottomWall
    {
        type            fixedValue;
        value           uniform (0 0 0);
    }
    frontAndBackPlanes
    {
        type            empty;
    }
}


// ************************************************************************* //
