/*--------------------------------*- C++ -*----------------------------------*\
| =========                 |                                                 |
| \\      /  F ield         | OpenFOAM: The Open Source CFD Toolbox           |
|  \\    /   O peration     | Version:  2506                                  |
|   \\  /    A nd           | Website:  www.openfoam.com                      |
|    \\/     M anipulation  |                                                 |
\*---------------------------------------------------------------------------*/
FoamFile
{
    version     2.0;
    format      ascii;
    arch        "LSB;label=32;scalar=64";
    class       volScalarField;
    location    "123";
    object      T;
}
// * * * * * * * * * * * * * * * * * * * * * * * * * * * * * * * * * * * * * //

dimensions      [0 0 0 1 0 0 0];

internalField   nonuniform List<scalar> 
200
(
273.166
273.195
273.216
273.23
273.24
273.246
273.251
273.255
273.259
273.263
273.267
273.271
273.275
273.279
273.285
273.295
273.319
273.381
273.532
273.862
273.176
273.223
273.255
273.275
273.285
273.291
273.293
273.295
273.297
273.299
273.302
273.305
273.309
273.311
273.314
273.32
273.34
273.4
273.557
273.888
273.19
273.262
273.311
273.34
273.354
273.359
273.36
273.359
273.359
273.359
273.36
273.36
273.361
273.36
273.359
273.362
273.38
273.441
273.601
273.92
273.205
273.302
273.369
273.407
273.424
273.43
273.429
273.427
273.424
273.421
273.42
273.418
273.415
273.41
273.405
273.404
273.421
273.486
273.65
273.95
273.219
273.342
273.426
273.472
273.491
273.495
273.492
273.487
273.483
273.479
273.476
273.472
273.466
273.457
273.449
273.447
273.467
273.538
273.702
273.976
273.234
273.383
273.482
273.532
273.551
273.553
273.548
273.543
273.539
273.536
273.533
273.528
273.52
273.51
273.502
273.504
273.53
273.604
273.757
273.999
273.25
273.427
273.536
273.587
273.605
273.607
273.605
273.603
273.602
273.602
273.6
273.597
273.591
273.585
273.581
273.587
273.615
273.683
273.815
274.021
273.272
273.471
273.587
273.639
273.659
273.666
273.671
273.675
273.679
273.684
273.687
273.688
273.688
273.687
273.687
273.695
273.72
273.776
273.881
274.045
273.295
273.512
273.632
273.688
273.715
273.73
273.742
273.752
273.761
273.771
273.779
273.787
273.794
273.801
273.808
273.818
273.84
273.881
273.955
274.073
273.311
273.533
273.653
273.712
273.743
273.763
273.778
273.792
273.806
273.82
273.834
273.849
273.864
273.879
273.896
273.913
273.937
273.97
274.022
274.098
)
;

boundaryField
{
    leftWall
    {
        type            fixedValue;
        value           uniform 273.15;
    }
    rightWall
    {
        type            customNeumannDirichletCoupledBoundary;
        refValue        nonuniform List<scalar> 10(274.13 274.131 274.133 274.135 274.137 274.139 274.14 274.142 274.144 274.145);
        refGradient     uniform 0;
        valueFraction   uniform 1;
        source          uniform 0;
        value           nonuniform List<scalar> 10(274.13 274.131 274.133 274.135 274.137 274.139 274.14 274.142 274.144 274.145);
        kappaMethod     fluidThermo;
    }
    topWall
    {
        type            zeroGradient;
    }
    bottomWall
    {
        type            zeroGradient;
    }
    frontAndBackPlanes
    {
        type            empty;
    }
}


// ************************************************************************* //
