/*--------------------------------*- C++ -*----------------------------------*\
| =========                 |                                                 |
| \\      /  F ield         | OpenFOAM: The Open Source CFD Toolbox           |
|  \\    /   O peration     | Version:  2506                                  |
|   \\  /    A nd           | Website:  www.openfoam.com                      |
|    \\/     M anipulation  |                                                 |
\*---------------------------------------------------------------------------*/
FoamFile
{
    version     2.0;
    format      ascii;
    arch        "LSB;label=32;scalar=64";
    class       volVectorField;
    location    "123";
    object      U;
}
// * * * * * * * * * * * * * * * * * * * * * * * * * * * * * * * * * * * * * //

dimensions      [0 1 -1 0 0 0 0];

internalField   nonuniform List<vector> 
200
(
(0.000497318 -0.00124737 0)
(0.00250563 -0.00158831 0)
(0.00463477 -0.00116836 0)
(0.00632538 -0.000629177 0)
(0.00736242 -0.000214627 0)
(0.00788364 2.29151e-05 0)
(0.00809727 0.000105294 0)
(0.00818868 7.59854e-05 0)
(0.00829546 -2.45269e-05 0)
(0.00851088 -0.000168913 0)
(0.00889447 -0.000344796 0)
(0.00948253 -0.000549772 0)
(0.0102926 -0.000781125 0)
(0.0113125 -0.00101831 0)
(0.0124578 -0.00119235 0)
(0.0134767 -0.00113178 0)
(0.013813 -0.000483838 0)
(0.0125913 0.00126465 0)
(0.00894455 0.00417174 0)
(0.00267841 0.0056897 0)
(0.000538404 -0.00493045 0)
(0.00343959 -0.00762605 0)
(0.00660326 -0.00681242 0)
(0.00931899 -0.00484345 0)
(0.0112531 -0.00291738 0)
(0.012474 -0.00151872 0)
(0.0131963 -0.000739442 0)
(0.0136408 -0.000491631 0)
(0.0139829 -0.000632222 0)
(0.0143398 -0.00102659 0)
(0.0147759 -0.00157012 0)
(0.0153095 -0.00217805 0)
(0.0159101 -0.00274815 0)
(0.016479 -0.00309523 0)
(0.016813 -0.00285712 0)
(0.016553 -0.00139118 0)
(0.0151206 0.00222454 0)
(0.0118964 0.0086343 0)
(0.006872 0.0163168 0)
(0.00116205 0.0163549 0)
(0.000510641 -0.00868636 0)
(0.0032577 -0.0139014 0)
(0.00618402 -0.0128807 0)
(0.00870307 -0.00963149 0)
(0.0105318 -0.00628423 0)
(0.0117349 -0.0037267 0)
(0.0124936 -0.00215956 0)
(0.0129835 -0.00146153 0)
(0.0133339 -0.00140142 0)
(0.0136239 -0.00174519 0)
(0.0138888 -0.00229181 0)
(0.0141248 -0.00285779 0)
(0.0142841 -0.00321953 0)
(0.0142586 -0.00302144 0)
(0.0138552 -0.00167244 0)
(0.0127641 0.00169044 0)
(0.0107071 0.00791106 0)
(0.00754517 0.0170341 0)
(0.00371023 0.025802 0)
(0.000421255 0.0219985 0)
(0.000448488 -0.0120673 0)
(0.00272517 -0.0192903 0)
(0.00496841 -0.0178762 0)
(0.00677365 -0.0134299 0)
(0.00799767 -0.00888245 0)
(0.00875774 -0.00540999 0)
(0.00922268 -0.00324343 0)
(0.00952069 -0.00219017 0)
(0.00972493 -0.00192734 0)
(0.00986781 -0.00214146 0)
(0.00995669 -0.00256719 0)
(0.00997998 -0.00295696 0)
(0.00990057 -0.00300136 0)
(0.00963924 -0.00222348 0)
(0.00905235 0.000101178 0)
(0.00796576 0.00485776 0)
(0.00625696 0.0127215 0)
(0.00396469 0.0231319 0)
(0.00155944 0.0315675 0)
(5.35948e-05 0.0244921 0)
(0.000370991 -0.0148083 0)
(0.00200773 -0.0232229 0)
(0.00333621 -0.0211288 0)
(0.00420024 -0.0156024 0)
(0.00463979 -0.0101817 0)
(0.00482911 -0.00616431 0)
(0.00491259 -0.00370364 0)
(0.00496074 -0.00249103 0)
(0.00498981 -0.00211861 0)
(0.00499393 -0.00222979 0)
(0.00496446 -0.00253944 0)
(0.00489174 -0.00277564 0)
(0.00475337 -0.00257658 0)
(0.00449741 -0.00138126 0)
(0.00402357 0.00161105 0)
(0.00325507 0.00724408 0)
(0.00216884 0.0159863 0)
(0.00092357 0.0267378 0)
(-7.47782e-05 0.0342396 0)
(-0.000177435 0.0249604 0)
(0.000275142 -0.0167498 0)
(0.00107966 -0.0253612 0)
(0.00128025 -0.022327 0)
(0.00106141 -0.0159524 0)
(0.00066071 -0.0100889 0)
(0.00026965 -0.0059474 0)
(-3.1837e-05 -0.00350845 0)
(-0.000247581 -0.00234121 0)
(-0.000411527 -0.00198532 0)
(-0.000550902 -0.0020831 0)
(-0.000680761 -0.00236061 0)
(-0.00081262 -0.00253748 0)
(-0.00096656 -0.00221296 0)
(-0.00117501 -0.000773668 0)
(-0.00147555 0.00259276 0)
(-0.001837 0.00862503 0)
(-0.00214135 0.017511 0)
(-0.00214484 0.0277457 0)
(-0.00159793 0.0339769 0)
(-0.000364142 0.0237722 0)
(0.000146597 -0.0175401 0)
(-0.000227108 -0.0251971 0)
(-0.00145776 -0.021057 0)
(-0.00289035 -0.0142689 0)
(-0.00415982 -0.0085488 0)
(-0.00513251 -0.00475816 0)
(-0.00582913 -0.00264764 0)
(-0.0063266 -0.00170801 0)
(-0.00669687 -0.00149143 0)
(-0.00698775 -0.0016744 0)
(-0.00722832 -0.00200192 0)
(-0.00743917 -0.00219076 0)
(-0.00763352 -0.00183462 0)
(-0.00779956 -0.000352197 0)
(-0.00786144 0.00295721 0)
(-0.00764952 0.00866685 0)
(-0.0069192 0.0167651 0)
(-0.00543045 0.025698 0)
(-0.00320775 0.0306327 0)
(-0.000581753 0.0209144 0)
(-0.000196191 -0.0165201 0)
(-0.00232766 -0.0218464 0)
(-0.00521965 -0.0168432 0)
(-0.00791016 -0.0104185 0)
(-0.00996288 -0.00554676 0)
(-0.0113807 -0.00259275 0)
(-0.0123245 -0.00112027 0)
(-0.0129603 -0.000611228 0)
(-0.0134147 -0.000669381 0)
(-0.013773 -0.00102273 0)
(-0.014087 -0.00145549 0)
(-0.0143762 -0.00172497 0)
(-0.0146176 -0.00149467 0)
(-0.0147188 -0.000311143 0)
(-0.0144736 0.00234517 0)
(-0.0135955 0.00689946 0)
(-0.0117471 0.0132896 0)
(-0.00872805 0.0202438 0)
(-0.00483167 0.0239873 0)
(-0.000812109 0.0163114 0)
(-0.000840672 -0.0125706 0)
(-0.00533145 -0.0144522 0)
(-0.00981733 -0.00955148 0)
(-0.0132215 -0.00471643 0)
(-0.0153172 -0.00160048 0)
(-0.0164539 -4.11556e-05 0)
(-0.0170379 0.000494812 0)
(-0.0173554 0.000452964 0)
(-0.017581 0.000114151 0)
(-0.0178184 -0.000354848 0)
(-0.0181183 -0.000831311 0)
(-0.0184793 -0.00117968 0)
(-0.0188323 -0.00121042 0)
(-0.0190181 -0.000662626 0)
(-0.0187506 0.000782332 0)
(-0.0176185 0.00343455 0)
(-0.0151836 0.00731736 0)
(-0.0112121 0.0117108 0)
(-0.00613374 0.0143414 0)
(-0.0010337 0.0100749 0)
(-0.00201594 -0.00430201 0)
(-0.00713162 -0.00374087 0)
(-0.0107707 -0.00171316 0)
(-0.0126683 -0.000291296 0)
(-0.0132774 0.000374995 0)
(-0.0132301 0.000561015 0)
(-0.0129459 0.000512433 0)
(-0.0126575 0.00037172 0)
(-0.0124828 0.00020123 0)
(-0.0124722 2.28791e-05 0)
(-0.0126391 -0.000153051 0)
(-0.0129672 -0.000313228 0)
(-0.0133991 -0.000431474 0)
(-0.0138104 -0.000458593 0)
(-0.0139795 -0.000310722 0)
(-0.0135764 0.000143551 0)
(-0.0121649 0.00101148 0)
(-0.0093967 0.00223908 0)
(-0.0054847 0.00331207 0)
(-0.0012995 0.00279007 0)
)
;

boundaryField
{
    leftWall
    {
        type            fixedValue;
        value           uniform (0 0 0);
    }
    rightWall
    {
        type            fixedValue;
        value           uniform (0 0 0);
    }
    topWall
    {
        type            fixedValue;
        value           uniform (0 0 0);
    }
    bottomWall
    {
        type            fixedValue;
        value           uniform (0 0 0);
    }
    frontAndBackPlanes
    {
        type            empty;
    }
}


// ************************************************************************* //
