/*--------------------------------*- C++ -*----------------------------------*\
| =========                 |                                                 |
| \\      /  F ield         | OpenFOAM: The Open Source CFD Toolbox           |
|  \\    /   O peration     | Version:  2506                                  |
|   \\  /    A nd           | Website:  www.openfoam.com                      |
|    \\/     M anipulation  |                                                 |
\*---------------------------------------------------------------------------*/
FoamFile
{
    version     2.0;
    format      ascii;
    arch        "LSB;label=32;scalar=64";
    class       volScalarField;
    location    "122.6";
    object      T;
}
// * * * * * * * * * * * * * * * * * * * * * * * * * * * * * * * * * * * * * //

dimensions      [0 0 0 1 0 0 0];

internalField   nonuniform List<scalar> 
200
(
273.166
273.194
273.215
273.23
273.239
273.246
273.251
273.255
273.259
273.262
273.266
273.27
273.274
273.279
273.284
273.294
273.318
273.38
273.532
273.862
273.176
273.223
273.255
273.274
273.285
273.29
273.293
273.295
273.296
273.299
273.302
273.305
273.308
273.311
273.314
273.319
273.34
273.4
273.556
273.888
273.19
273.261
273.31
273.339
273.353
273.358
273.359
273.359
273.358
273.358
273.359
273.36
273.36
273.36
273.358
273.361
273.379
273.44
273.6
273.92
273.204
273.301
273.368
273.406
273.424
273.429
273.429
273.426
273.423
273.421
273.419
273.417
273.414
273.409
273.404
273.404
273.421
273.486
273.649
273.95
273.219
273.341
273.425
273.471
273.49
273.494
273.491
273.487
273.482
273.478
273.475
273.471
273.465
273.457
273.448
273.447
273.466
273.537
273.702
273.976
273.234
273.382
273.481
273.531
273.55
273.552
273.548
273.542
273.538
273.535
273.532
273.527
273.519
273.509
273.501
273.503
273.529
273.603
273.756
273.998
273.25
273.426
273.536
273.587
273.604
273.606
273.604
273.602
273.601
273.601
273.6
273.596
273.591
273.584
273.58
273.586
273.614
273.683
273.815
274.02
273.272
273.471
273.586
273.638
273.658
273.666
273.67
273.674
273.679
273.683
273.686
273.688
273.687
273.686
273.686
273.695
273.72
273.776
273.881
274.045
273.295
273.512
273.631
273.687
273.714
273.73
273.741
273.751
273.761
273.77
273.779
273.787
273.794
273.801
273.807
273.818
273.839
273.881
273.955
274.072
273.311
273.533
273.652
273.711
273.742
273.762
273.777
273.792
273.806
273.82
273.834
273.848
273.863
273.879
273.895
273.913
273.936
273.97
274.022
274.098
)
;

boundaryField
{
    leftWall
    {
        type            fixedValue;
        value           uniform 273.15;
    }
    rightWall
    {
        type            customNeumannDirichletCoupledBoundary;
        refValue        nonuniform List<scalar> 10(274.13 274.131 274.133 274.135 274.137 274.139 274.14 274.142 274.144 274.145);
        refGradient     uniform 0;
        valueFraction   uniform 1;
        source          uniform 0;
        value           nonuniform List<scalar> 10(274.13 274.131 274.133 274.135 274.137 274.139 274.14 274.142 274.144 274.145);
        kappaMethod     fluidThermo;
    }
    topWall
    {
        type            zeroGradient;
    }
    bottomWall
    {
        type            zeroGradient;
    }
    frontAndBackPlanes
    {
        type            empty;
    }
}


// ************************************************************************* //
