/*--------------------------------*- C++ -*----------------------------------*\
| =========                 |                                                 |
| \\      /  F ield         | OpenFOAM: The Open Source CFD Toolbox           |
|  \\    /   O peration     | Version:  2506                                  |
|   \\  /    A nd           | Website:  www.openfoam.com                      |
|    \\/     M anipulation  |                                                 |
\*---------------------------------------------------------------------------*/
FoamFile
{
    version     2.0;
    format      ascii;
    arch        "LSB;label=32;scalar=64";
    class       surfaceScalarField;
    location    "2.4";
    object      phi;
}
// * * * * * * * * * * * * * * * * * * * * * * * * * * * * * * * * * * * * * //

dimensions      [1 0 -1 0 0 0 0];

oriented        oriented;

internalField   nonuniform List<scalar> 
370
(
-0.0002136
-4.48829e-05
-0.000176347
-3.72782e-05
-0.000152241
-2.41366e-05
-0.000120414
-3.18565e-05
-7.84097e-05
-4.20349e-05
-2.97741e-05
-4.86663e-05
2.24102e-05
-5.22153e-05
7.70047e-05
-5.46257e-05
0.000134806
-5.78328e-05
0.000198134
-6.33587e-05
0.000270321
-7.22194e-05
0.000355484
-8.51945e-05
0.00045829
-0.000102838
0.000583116
-0.000124859
0.000731805
-0.000148721
0.000898058
-0.00016627
0.00105253
-0.000154354
0.00109883
-4.52224e-05
0.000836708
0.000267773
0.000851369
-5.42892e-05
9.47693e-06
-0.000106804
1.52683e-05
-0.000131313
3.74808e-07
-0.000129302
-3.38727e-05
-0.000101054
-7.02887e-05
-5.32001e-05
-9.65272e-05
6.67599e-06
-0.000112099
7.37843e-05
-0.000121742
0.000146444
-0.0001305
0.000224874
-0.000141796
0.000310186
-0.00015754
0.000403458
-0.000178474
0.000504612
-0.000204
0.000610723
-0.000230978
0.000713089
-0.000251093
0.00079224
-0.000245412
0.000809657
-0.000171622
0.000703051
6.2536e-05
0.000371001
0.000605829
0.001238
-3.0428e-05
4.00585e-05
-6.83905e-05
5.33086e-05
-9.05796e-05
2.25809e-05
-9.14642e-05
-3.29862e-05
-7.30308e-05
-8.87227e-05
-3.9391e-05
-0.000130168
4.73301e-06
-0.000156224
5.57647e-05
-0.000172775
0.000111588
-0.000186326
0.000171112
-0.000201322
0.000233546
-0.000219975
0.000297643
-0.000242573
0.000360797
-0.000267155
0.000417837
-0.000288019
0.000459501
-0.000292756
0.000470912
-0.000256806
0.000431458
-0.000132006
0.00031999
0.000175219
0.000141762
0.000790365
0.00139602
-1.74259e-05
5.77238e-05
-3.62072e-05
7.2214e-05
-4.7813e-05
3.42156e-05
-4.93083e-05
-3.14867e-05
-4.02979e-05
-9.77328e-05
-2.24629e-05
-0.000148003
1.94843e-06
-0.000180636
3.09336e-05
-0.000201761
6.29933e-05
-0.000218386
9.70086e-05
-0.000235338
0.000131904
-0.000254871
0.000166246
-0.000276915
0.00019776
-0.00029867
0.000222808
-0.000313067
0.000235916
-0.000305863
0.000229788
-0.00025066
0.000196574
-9.8624e-05
0.000132222
0.000240827
5.03178e-05
0.000878755
0.00146292
-1.26756e-05
7.07245e-05
-2.40271e-05
8.37353e-05
-3.04583e-05
4.06868e-05
-3.20398e-05
-2.98989e-05
-2.94221e-05
-0.00010035
-2.34395e-05
-0.000153986
-1.49907e-05
-0.000189085
-4.82488e-06
-0.000211926
6.50483e-06
-0.000229715
1.85819e-05
-0.000247414
3.10208e-05
-0.00026731
4.33264e-05
-0.00028922
5.47238e-05
-0.000310067
6.39692e-05
-0.000322311
6.91761e-05
-0.000311068
6.77725e-05
-0.000249238
5.69246e-05
-8.7603e-05
3.56429e-05
0.000263395
1.00744e-05
0.000910913
0.00148979
-1.12453e-05
8.23807e-05
-1.89204e-05
9.16257e-05
-2.23482e-05
4.41655e-05
-2.46465e-05
-2.75924e-05
-2.77213e-05
-9.72737e-05
-3.23599e-05
-0.000149347
-3.85399e-05
-0.000182904
-4.59158e-05
-0.00020455
-5.40194e-05
-0.000221611
-6.23194e-05
-0.000239113
-7.01898e-05
-0.000259438
-7.68376e-05
-0.000282571
-8.12426e-05
-0.000305661
-8.21638e-05
-0.000321389
-7.83e-05
-0.00031493
-6.87858e-05
-0.000258733
-5.40742e-05
-0.000102132
-3.64547e-05
0.000247106
-1.8403e-05
0.000899565
0.00148831
-7.91496e-06
9.07923e-05
-8.4051e-06
9.23768e-05
-6.10755e-06
4.19298e-05
-7.85054e-06
-2.58394e-05
-1.72877e-05
-8.7835e-05
-3.4175e-05
-0.000132459
-5.70511e-05
-0.000160027
-8.4207e-05
-0.000177392
-0.00011415
-0.000191667
-0.000145576
-0.000207685
-0.000177107
-0.000227906
-0.000206919
-0.000252758
-0.000232334
-0.000280244
-0.00024945
-0.000304272
-0.000253005
-0.000311372
-0.000236982
-0.000274733
-0.000196804
-0.000142107
-0.000133658
0.00018537
-5.87896e-05
0.000831561
0.00144654
4.51711e-06
8.68589e-05
2.1936e-05
7.5265e-05
3.56716e-05
2.82683e-05
3.40538e-05
-2.42092e-05
1.51274e-05
-6.89063e-05
-1.84717e-05
-9.88581e-05
-6.24532e-05
-0.000116044
-0.000113377
-0.000126467
-0.000169089
-0.000135953
-0.000228316
-0.000148455
-0.000289992
-0.000166227
-0.000352478
-0.000190269
-0.000412626
-0.000220094
-0.000464583
-0.000252311
-0.000498442
-0.000277509
-0.00049939
-0.000273755
-0.000449271
-0.000191982
-0.000331783
6.94539e-05
-0.000154895
0.000661853
0.00130878
2.77947e-05
5.97353e-05
7.00174e-05
3.33982e-05
9.26561e-05
5.71848e-06
8.72153e-05
-1.8752e-05
5.4801e-05
-3.6488e-05
3.24348e-06
-4.72977e-05
-5.98672e-05
-5.29297e-05
-0.000129928
-5.64027e-05
-0.000205368
-6.05088e-05
-0.000286614
-6.72052e-05
-0.000374981
-7.78557e-05
-0.000471665
-9.35799e-05
-0.000576549
-0.000115204
-0.000686343
-0.000142511
-0.00079138
-0.00017246
-0.000870476
-0.000194611
-0.000882633
-0.000179491
-0.000766546
-4.46859e-05
-0.000411908
0.00031514
0.000914188
6.05072e-05
9.43385e-05
0.000100193
8.14942e-05
4.50449e-05
-2.21572e-06
-5.51084e-05
-0.000111474
-0.000171946
-0.000239114
-0.000316932
-0.000410473
-0.000525638
-0.000668109
-0.000840522
-0.00103503
-0.00121404
-0.0012562
-0.000931776
)
;

boundaryField
{
    leftWall
    {
        type            calculated;
        value           uniform 0;
    }
    rightWall
    {
        type            calculated;
        value           nonuniform List<scalar> 10(0 0 0 0 -1.73472e-18 0 0 0 0 3.46945e-18);
    }
    topWall
    {
        type            calculated;
        value           uniform 0;
    }
    bottomWall
    {
        type            calculated;
        value           uniform 0;
    }
    frontAndBackPlanes
    {
        type            empty;
    }
}


// ************************************************************************* //
