/*--------------------------------*- C++ -*----------------------------------*\
| =========                 |                                                 |
| \\      /  F ield         | OpenFOAM: The Open Source CFD Toolbox           |
|  \\    /   O peration     | Version:  2506                                  |
|   \\  /    A nd           | Website:  www.openfoam.com                      |
|    \\/     M anipulation  |                                                 |
\*---------------------------------------------------------------------------*/
FoamFile
{
    version     2.0;
    format      ascii;
    arch        "LSB;label=32;scalar=64";
    class       volScalarField;
    location    "2.4";
    object      T;
}
// * * * * * * * * * * * * * * * * * * * * * * * * * * * * * * * * * * * * * //

dimensions      [0 0 0 1 0 0 0];

internalField   nonuniform List<scalar> 
200
(
273.15
273.15
273.15
273.15
273.15
273.15
273.15
273.15
273.15
273.15
273.15
273.15
273.15
273.15
273.15
273.15
273.151
273.159
273.218
273.553
273.147
273.145
273.145
273.145
273.145
273.145
273.145
273.145
273.145
273.145
273.145
273.145
273.145
273.145
273.145
273.145
273.146
273.154
273.215
273.558
273.144
273.14
273.139
273.139
273.139
273.139
273.139
273.139
273.139
273.139
273.139
273.139
273.139
273.139
273.139
273.139
273.14
273.148
273.211
273.559
273.141
273.134
273.133
273.132
273.132
273.132
273.132
273.132
273.132
273.132
273.132
273.132
273.132
273.132
273.132
273.133
273.133
273.142
273.206
273.558
273.138
273.128
273.126
273.126
273.126
273.126
273.126
273.126
273.126
273.126
273.126
273.126
273.126
273.126
273.126
273.126
273.127
273.135
273.2
273.555
273.135
273.123
273.12
273.12
273.12
273.12
273.12
273.12
273.12
273.12
273.12
273.12
273.12
273.12
273.12
273.12
273.121
273.129
273.195
273.552
273.132
273.117
273.114
273.113
273.113
273.113
273.113
273.113
273.113
273.113
273.113
273.113
273.113
273.113
273.113
273.113
273.114
273.124
273.19
273.549
273.129
273.111
273.108
273.107
273.107
273.107
273.107
273.107
273.107
273.107
273.107
273.107
273.107
273.107
273.107
273.107
273.108
273.118
273.187
273.546
273.125
273.106
273.101
273.101
273.101
273.101
273.101
273.101
273.101
273.101
273.101
273.101
273.101
273.101
273.101
273.101
273.102
273.114
273.186
273.543
273.122
273.1
273.095
273.095
273.095
273.095
273.094
273.094
273.094
273.094
273.094
273.094
273.095
273.095
273.095
273.095
273.097
273.111
273.191
273.541
)
;

boundaryField
{
    leftWall
    {
        type            fixedValue;
        value           uniform 273.15;
    }
    rightWall
    {
        type            customNeumannDirichletCoupledBoundary;
        refValue        nonuniform List<scalar> 10(274.1 274.1 274.1 274.1 274.1 274.1 274.1 274.099 274.099 274.099);
        refGradient     uniform 0;
        valueFraction   uniform 1;
        source          uniform 0;
        value           nonuniform List<scalar> 10(274.1 274.1 274.1 274.1 274.1 274.1 274.1 274.099 274.099 274.099);
        kappaMethod     fluidThermo;
    }
    topWall
    {
        type            zeroGradient;
    }
    bottomWall
    {
        type            zeroGradient;
    }
    frontAndBackPlanes
    {
        type            empty;
    }
}


// ************************************************************************* //
