/*--------------------------------*- C++ -*----------------------------------*\
| =========                 |                                                 |
| \\      /  F ield         | OpenFOAM: The Open Source CFD Toolbox           |
|  \\    /   O peration     | Version:  2506                                  |
|   \\  /    A nd           | Website:  www.openfoam.com                      |
|    \\/     M anipulation  |                                                 |
\*---------------------------------------------------------------------------*/
FoamFile
{
    version     2.0;
    format      ascii;
    arch        "LSB;label=32;scalar=64";
    class       volScalarField;
    location    "116.2";
    object      T;
}
// * * * * * * * * * * * * * * * * * * * * * * * * * * * * * * * * * * * * * //

dimensions      [0 0 0 1 0 0 0];

internalField   nonuniform List<scalar> 
200
(
273.165
273.191
273.21
273.224
273.233
273.239
273.243
273.247
273.25
273.253
273.257
273.26
273.264
273.268
273.274
273.284
273.307
273.369
273.522
273.857
273.175
273.218
273.248
273.267
273.277
273.281
273.284
273.285
273.287
273.289
273.292
273.295
273.298
273.3
273.303
273.309
273.329
273.389
273.546
273.883
273.188
273.255
273.302
273.329
273.343
273.348
273.349
273.348
273.348
273.348
273.348
273.349
273.349
273.348
273.347
273.35
273.368
273.429
273.591
273.915
273.202
273.294
273.359
273.395
273.412
273.417
273.417
273.414
273.411
273.409
273.407
273.406
273.402
273.397
273.392
273.391
273.409
273.474
273.64
273.946
273.216
273.334
273.415
273.459
273.478
273.482
273.479
273.475
273.47
273.467
273.463
273.459
273.453
273.445
273.436
273.434
273.454
273.526
273.692
273.973
273.231
273.374
273.47
273.519
273.538
273.54
273.536
273.531
273.527
273.524
273.521
273.516
273.508
273.497
273.489
273.491
273.517
273.592
273.748
273.995
273.247
273.417
273.525
273.575
273.592
273.594
273.592
273.591
273.59
273.59
273.589
273.585
273.579
273.572
273.568
273.574
273.603
273.672
273.807
274.017
273.268
273.462
273.575
273.627
273.647
273.654
273.659
273.663
273.668
273.673
273.676
273.677
273.677
273.676
273.676
273.684
273.71
273.767
273.874
274.042
273.291
273.502
273.62
273.676
273.703
273.719
273.731
273.741
273.751
273.761
273.77
273.778
273.786
273.792
273.799
273.81
273.831
273.874
273.95
274.07
273.307
273.524
273.641
273.7
273.732
273.752
273.768
273.783
273.797
273.812
273.826
273.841
273.857
273.872
273.889
273.907
273.931
273.966
274.018
274.096
)
;

boundaryField
{
    leftWall
    {
        type            fixedValue;
        value           uniform 273.15;
    }
    rightWall
    {
        type            customNeumannDirichletCoupledBoundary;
        refValue        nonuniform List<scalar> 10(274.13 274.131 274.133 274.135 274.137 274.138 274.14 274.142 274.143 274.145);
        refGradient     uniform 0;
        valueFraction   uniform 1;
        source          uniform 0;
        value           nonuniform List<scalar> 10(274.13 274.131 274.133 274.135 274.137 274.138 274.14 274.142 274.143 274.145);
        kappaMethod     fluidThermo;
    }
    topWall
    {
        type            zeroGradient;
    }
    bottomWall
    {
        type            zeroGradient;
    }
    frontAndBackPlanes
    {
        type            empty;
    }
}


// ************************************************************************* //
