/*--------------------------------*- C++ -*----------------------------------*\
| =========                 |                                                 |
| \\      /  F ield         | OpenFOAM: The Open Source CFD Toolbox           |
|  \\    /   O peration     | Version:  2506                                  |
|   \\  /    A nd           | Website:  www.openfoam.com                      |
|    \\/     M anipulation  |                                                 |
\*---------------------------------------------------------------------------*/
FoamFile
{
    version     2.0;
    format      ascii;
    arch        "LSB;label=32;scalar=64";
    class       surfaceScalarField;
    location    "25";
    object      phi;
}
// * * * * * * * * * * * * * * * * * * * * * * * * * * * * * * * * * * * * * //

dimensions      [1 0 -1 0 0 0 0];

oriented        oriented;

internalField   nonuniform List<scalar> 
370
(
-7.03286e-05
-3.67223e-05
3.57209e-05
-0.000106051
0.000216866
-0.000181148
0.000468748
-0.000251887
0.00077427
-0.000305528
0.00111282
-0.000338558
0.00146482
-0.000352007
0.00181446
-0.000349661
0.00215148
-0.000337032
0.00247158
-0.000320106
0.00277559
-0.000304031
0.0030674
-0.000291824
0.00334916
-0.000281771
0.0036141
-0.000264953
0.00383296
-0.000218869
0.00392427
-9.13205e-05
0.00374601
0.000178273
0.00306968
0.000676354
0.00167345
0.00139627
0.00167348
6.99575e-05
-0.000106676
0.00030825
-0.000344334
0.000695526
-0.000568409
0.0011993
-0.000755647
0.00178355
-0.000889755
0.00241009
-0.000965086
0.00304299
-0.000984893
0.00365217
-0.000958818
0.00421494
-0.000899789
0.00471537
-0.000820519
0.00514138
-0.000730034
0.00547988
-0.000630313
0.00571061
-0.000512491
0.00579725
-0.000351587
0.00567655
-9.81713e-05
0.00525594
0.000329294
0.00440096
0.00103325
0.00300374
0.0020736
0.00121824
0.0031818
0.00289175
0.000133469
-0.000240136
0.000480804
-0.000691642
0.000995037
-0.0010826
0.00162523
-0.00138579
0.00232091
-0.00158538
0.00303408
-0.00167819
0.0037227
-0.00167345
0.00435374
-0.00158977
0.00490376
-0.00144972
0.00535681
-0.00127348
0.00569984
-0.00107298
0.00591646
-0.000846869
0.00598007
-0.000576036
0.00584766
-0.000219137
0.00545703
0.000292491
0.00474268
0.00104365
0.00366046
0.00211548
0.00225439
0.00347969
0.000804188
0.00463204
0.00369598
0.000164693
-0.000404813
0.000567653
-0.00109456
0.00113232
-0.0016472
0.00179167
-0.00204505
0.00248463
-0.00227823
0.00315723
-0.00235063
0.00376657
-0.0022826
0.00428406
-0.00210704
0.00469514
-0.00186057
0.00499514
-0.00157326
0.00518252
-0.00126015
0.00525073
-0.000914897
0.0051804
-0.000505553
0.00493782
2.35578e-05
0.00447213
0.000758272
0.00374791
0.00176793
0.00275943
0.00310398
0.001592
0.00464717
0.000510433
0.00571367
0.00420646
0.000172734
-0.000577524
0.000567266
-0.00148902
0.00109153
-0.00217137
0.00167222
-0.00262558
0.00224563
-0.0028514
0.00275855
-0.00286321
0.00317432
-0.00269793
0.00347695
-0.00240918
0.00366936
-0.00205246
0.00376612
-0.00166955
0.00378345
-0.00127707
0.00372897
-0.00086007
0.00359403
-0.000370337
0.00334788
0.000269924
0.00296007
0.00114624
0.0024012
0.0023269
0.00168116
0.00382411
0.000888382
0.00544003
0.000233597
0.00636856
0.00444012
0.000140071
-0.000717564
0.000429034
-0.0017779
0.000782615
-0.00252479
0.00113918
-0.00298185
0.00144556
-0.00315729
0.00166034
-0.00307727
0.0017637
-0.00280039
0.00176149
-0.002406
0.00168029
-0.00197035
0.00155555
-0.00154402
0.00141815
-0.00113902
0.00128355
-0.000724977
0.0011464
-0.000232797
0.000984565
0.000432062
0.000776209
0.00135484
0.00051125
0.00259204
0.000216476
0.00411904
-2.63117e-05
0.00568301
-0.00010453
0.00644693
0.00433565
3.96738e-05
-0.0007572
8.24014e-05
-0.00182051
9.0245e-05
-0.00253237
3.7198e-05
-0.00292827
-9.91761e-05
-0.00301996
-0.000329617
-0.00284545
-0.000643327
-0.00248506
-0.00100704
-0.00204069
-0.0013755
-0.00160051
-0.00170587
-0.00121257
-0.00196869
-0.000875412
-0.00215137
-0.000541709
-0.00225508
-0.000128611
-0.00227543
0.000452836
-0.0022075
0.00128728
-0.00203296
0.00241782
-0.00171244
0.00379879
-0.00119899
0.00516981
-0.000520599
0.00576873
0.00381511
-0.000145234
-0.00061192
-0.00050252
-0.00146306
-0.0010153
-0.00201914
-0.00164427
-0.00229831
-0.00235515
-0.00230738
-0.00310755
-0.00209076
-0.00385382
-0.00173632
-0.0045463
-0.00134596
-0.00514655
-0.000998439
-0.00562982
-0.000727927
-0.00598208
-0.000522125
-0.00619083
-0.000332137
-0.00623485
-8.3894e-05
-0.00607494
0.000293529
-0.00566494
0.00087782
-0.00495366
0.00170702
-0.00389656
0.00274211
-0.00250552
0.0037791
-0.000983803
0.00424725
0.0028314
-0.00033405
-0.000277821
-0.00110092
-0.000695951
-0.00214213
-0.000977235
-0.0033312
-0.00110771
-0.00455108
-0.00108498
-0.00570042
-0.000938208
-0.00670699
-0.000726392
-0.00753629
-0.000513609
-0.00818781
-0.00034441
-0.00867954
-0.000234241
-0.00902759
-0.000172555
-0.00922716
-0.000131363
-0.00923651
-7.3546e-05
-0.00899202
4.98904e-05
-0.00839183
0.000278373
-0.00733221
0.000648053
-0.00573914
0.00114957
-0.00364962
0.00169001
-0.00139819
0.00199611
0.00143333
-0.00027779
-0.000973547
-0.0019501
-0.00305622
-0.0041385
-0.00507314
-0.00579562
-0.00630546
-0.00664655
-0.00687804
-0.00704837
-0.00717796
-0.00725008
-0.00719901
-0.00691965
-0.00627077
-0.00512053
-0.00342999
-0.0014335
)
;

boundaryField
{
    leftWall
    {
        type            calculated;
        value           nonuniform List<scalar> 10(0 0 -1.69407e-21 -3.38813e-21 0 0 0 0 0 0);
    }
    rightWall
    {
        type            calculated;
        value           nonuniform List<scalar> 10(0 0 4.33681e-19 0 0 0 8.67362e-19 8.67362e-19 0 0);
    }
    topWall
    {
        type            calculated;
        value           uniform 0;
    }
    bottomWall
    {
        type            calculated;
        value           uniform 0;
    }
    frontAndBackPlanes
    {
        type            empty;
    }
}


// ************************************************************************* //
