/*--------------------------------*- C++ -*----------------------------------*\
| =========                 |                                                 |
| \\      /  F ield         | OpenFOAM: The Open Source CFD Toolbox           |
|  \\    /   O peration     | Version:  2506                                  |
|   \\  /    A nd           | Website:  www.openfoam.com                      |
|    \\/     M anipulation  |                                                 |
\*---------------------------------------------------------------------------*/
FoamFile
{
    version     2.0;
    format      ascii;
    arch        "LSB;label=32;scalar=64";
    class       surfaceScalarField;
    location    "6";
    object      phi;
}
// * * * * * * * * * * * * * * * * * * * * * * * * * * * * * * * * * * * * * //

dimensions      [1 0 -1 0 0 0 0];

oriented        oriented;

internalField   nonuniform List<scalar> 
370
(
-0.000116393
-3.57083e-05
-6.48547e-05
-5.15531e-05
-6.74608e-06
-5.81311e-05
6.35275e-05
-7.02999e-05
0.000145015
-8.15154e-05
0.000238636
-9.36497e-05
0.000346806
-0.000108199
0.000472984
-0.000126207
0.000621681
-0.000148728
0.000798553
-0.000176903
0.00101022
-0.000211694
0.00126341
-0.000253229
0.00156285
-0.000299464
0.00190589
-0.000343076
0.00227196
-0.000366071
0.00260168
-0.000329613
0.00275521
-0.000153106
0.00248785
0.000268604
0.00149827
0.000992001
0.00150052
-1.66749e-05
-1.90165e-05
1.59699e-06
-6.98035e-05
5.83912e-05
-0.000114918
0.000143422
-0.000155335
0.000253946
-0.000192048
0.000388466
-0.00022818
0.000547002
-0.000266748
0.000730845
-0.000310062
0.000942049
-0.000359944
0.00118274
-0.00041761
0.00145392
-0.000482884
0.00175316
-0.000552488
0.00207054
-0.000616852
0.00238193
-0.000654472
0.00263829
-0.00062241
0.00275072
-0.000441915
0.0025899
8.19758e-06
0.00197372
0.000886177
0.00088237
0.0020861
0.00238539
-5.74057e-06
-1.32352e-05
1.05835e-05
-8.60701e-05
5.88667e-05
-0.000163169
0.000134817
-0.000231276
0.000234568
-0.000291799
0.000355961
-0.000349576
0.000497954
-0.000408745
0.000660076
-0.000472189
0.000841805
-0.000541679
0.00104172
-0.000617532
0.00125619
-0.00069736
0.00147731
-0.000773608
0.00168978
-0.000829332
0.00186671
-0.0008314
0.00196472
-0.00072038
0.00192138
-0.000398406
0.00165723
0.000272964
0.00113692
0.00140828
0.000449599
0.00277685
0.00283799
-7.9482e-06
-5.22386e-06
-1.89695e-08
-9.39086e-05
3.073e-05
-0.000193865
8.23147e-05
-0.000282841
0.000151433
-0.000360913
0.00023571
-0.000433854
0.000333739
-0.000506776
0.000444555
-0.000583006
0.000567047
-0.000664174
0.000699256
-0.000749744
0.000837388
-0.000835494
0.000974415
-0.000910638
0.00109821
-0.00095313
0.00118939
-0.000922567
0.00121962
-0.00075057
0.00115275
-0.000331332
0.000954161
0.000472325
0.000618654
0.00174596
0.000225433
0.00317419
0.00306689
-1.42265e-05
9.08749e-06
-2.24835e-05
-8.55289e-05
-1.57502e-05
-0.000200527
4.46681e-06
-0.00030303
3.49407e-05
-0.000391379
7.3358e-05
-0.000472269
0.000118536
-0.000551953
0.000170088
-0.000634559
0.00022797
-0.000722056
0.000291969
-0.000813742
0.000361061
-0.000904586
0.000432501
-0.000982078
0.00050056
-0.00102119
0.000554999
-0.000976996
0.000579875
-0.000775393
0.000554337
-0.00030555
0.000458514
0.000569043
0.000291454
0.00191552
0.000100297
0.00337002
0.00317104
-2.18799e-05
3.10735e-05
-4.78344e-05
-5.94209e-05
-6.71827e-05
-0.000181088
-8.11549e-05
-0.000289023
-9.30495e-05
-0.000379473
-0.000105033
-0.000460282
-0.000117679
-0.000539305
-0.000130237
-0.000621999
-0.000140919
-0.000711371
-0.000147138
-0.000807521
-0.000145772
-0.000905949
-0.000133681
-0.000994167
-0.00010874
-0.00104612
-7.16502e-05
-0.00101407
-2.83236e-05
-0.000818651
8.90048e-06
-0.000342485
2.57969e-05
0.000553177
1.76902e-05
0.00192645
1.76376e-06
0.0033911
0.00317697
-2.65429e-05
5.77434e-05
-6.53999e-05
-2.03799e-05
-0.000107245
-0.000139134
-0.00015427
-0.000241954
-0.000209858
-0.00032387
-0.00027569
-0.000394444
-0.000351606
-0.000463384
-0.000435912
-0.000537689
-0.000525453
-0.000621824
-0.000615385
-0.000717584
-0.000698755
-0.000822574
-0.000766196
-0.00092672
-0.000806218
-0.00100609
-0.000806849
-0.00101341
-0.000759152
-0.000866215
-0.000661524
-0.000439644
-0.000519855
0.000412902
-0.000340635
0.00175056
-0.000138139
0.00319423
0.0030432
-2.07957e-05
7.86873e-05
-5.76513e-05
1.66907e-05
-0.000111524
-8.51326e-05
-0.000185849
-0.000167578
-0.000282577
-0.000227124
-0.000401652
-0.00027536
-0.00054216
-0.00032287
-0.000702746
-0.000377095
-0.000881302
-0.00044326
-0.00107403
-0.000524848
-0.00127393
-0.000622664
-0.0014688
-0.000731831
-0.00163913
-0.000835744
-0.00175665
-0.000895796
-0.00178542
-0.000837149
-0.00168664
-0.000537543
-0.0014248
0.000153224
-0.000980612
0.00131067
-0.00040766
0.00262757
0.00264009
1.00534e-05
6.88072e-05
1.35492e-06
2.56418e-05
-4.76461e-05
-3.59791e-05
-0.00013776
-7.7399e-05
-0.000262522
-0.000102335
-0.000417116
-0.000120751
-0.000600166
-0.000139806
-0.000813189
-0.000164058
-0.00105946
-0.000196969
-0.00134268
-0.000241611
-0.00166479
-0.000300534
-0.00202247
-0.000374126
-0.00240127
-0.000456874
-0.00276637
-0.000530482
-0.00305051
-0.000552355
-0.00314314
-0.000443153
-0.00290767
-7.85506e-05
-0.00215761
0.000566592
-0.000955735
0.00143301
0.00168923
6.90077e-05
9.49517e-05
5.91706e-05
-1.81308e-05
-0.000120414
-0.000241128
-0.0003809
-0.000544923
-0.000741856
-0.00098343
-0.00128392
-0.001658
-0.00211477
-0.00264495
-0.00319632
-0.00363688
-0.00371023
-0.0031359
-0.00169452
)
;

boundaryField
{
    leftWall
    {
        type            calculated;
        value           nonuniform List<scalar> 10(5.29396e-23 0 0 0 0 0 0 0 0 0);
    }
    rightWall
    {
        type            calculated;
        value           nonuniform List<scalar> 10(0 0 4.33681e-19 0 0 8.67362e-19 0 0 0 0);
    }
    topWall
    {
        type            calculated;
        value           uniform 0;
    }
    bottomWall
    {
        type            calculated;
        value           uniform 0;
    }
    frontAndBackPlanes
    {
        type            empty;
    }
}


// ************************************************************************* //
