/*--------------------------------*- C++ -*----------------------------------*\
| =========                 |                                                 |
| \\      /  F ield         | OpenFOAM: The Open Source CFD Toolbox           |
|  \\    /   O peration     | Version:  2506                                  |
|   \\  /    A nd           | Website:  www.openfoam.com                      |
|    \\/     M anipulation  |                                                 |
\*---------------------------------------------------------------------------*/
FoamFile
{
    version     2.0;
    format      ascii;
    arch        "LSB;label=32;scalar=64";
    class       volScalarField;
    location    "6";
    object      T;
}
// * * * * * * * * * * * * * * * * * * * * * * * * * * * * * * * * * * * * * //

dimensions      [0 0 0 1 0 0 0];

internalField   nonuniform List<scalar> 
200
(
273.15
273.15
273.149
273.149
273.149
273.149
273.149
273.149
273.149
273.149
273.149
273.149
273.149
273.149
273.15
273.152
273.161
273.201
273.343
273.743
273.149
273.146
273.145
273.145
273.145
273.145
273.145
273.145
273.145
273.145
273.145
273.145
273.145
273.145
273.145
273.147
273.157
273.201
273.354
273.769
273.147
273.142
273.14
273.139
273.139
273.139
273.139
273.139
273.139
273.139
273.139
273.139
273.139
273.139
273.139
273.142
273.153
273.202
273.369
273.79
273.145
273.138
273.134
273.133
273.133
273.132
273.132
273.132
273.132
273.132
273.132
273.132
273.132
273.133
273.133
273.136
273.149
273.203
273.379
273.803
273.143
273.133
273.128
273.127
273.126
273.126
273.126
273.126
273.126
273.126
273.126
273.126
273.126
273.126
273.127
273.13
273.144
273.201
273.384
273.809
273.141
273.128
273.123
273.12
273.12
273.12
273.12
273.12
273.12
273.12
273.12
273.12
273.12
273.12
273.121
273.124
273.139
273.2
273.387
273.813
273.139
273.124
273.117
273.114
273.114
273.113
273.113
273.113
273.114
273.114
273.114
273.114
273.114
273.114
273.115
273.119
273.138
273.203
273.391
273.814
273.138
273.12
273.111
273.108
273.107
273.107
273.107
273.107
273.107
273.107
273.107
273.107
273.107
273.108
273.11
273.117
273.142
273.215
273.404
273.815
273.136
273.115
273.105
273.102
273.101
273.101
273.101
273.101
273.101
273.101
273.101
273.101
273.101
273.102
273.106
273.12
273.157
273.245
273.435
273.82
273.134
273.112
273.101
273.097
273.096
273.096
273.096
273.096
273.096
273.096
273.096
273.096
273.096
273.098
273.104
273.124
273.176
273.284
273.482
273.83
)
;

boundaryField
{
    leftWall
    {
        type            fixedValue;
        value           uniform 273.15;
    }
    rightWall
    {
        type            customNeumannDirichletCoupledBoundary;
        refValue        nonuniform List<scalar> 10(274.121 274.122 274.123 274.124 274.124 274.124 274.125 274.125 274.125 274.125);
        refGradient     uniform 0;
        valueFraction   uniform 1;
        source          uniform 0;
        value           nonuniform List<scalar> 10(274.121 274.122 274.123 274.124 274.124 274.124 274.125 274.125 274.125 274.125);
        kappaMethod     fluidThermo;
    }
    topWall
    {
        type            zeroGradient;
    }
    bottomWall
    {
        type            zeroGradient;
    }
    frontAndBackPlanes
    {
        type            empty;
    }
}


// ************************************************************************* //
