/*--------------------------------*- C++ -*----------------------------------*\
| =========                 |                                                 |
| \\      /  F ield         | OpenFOAM: The Open Source CFD Toolbox           |
|  \\    /   O peration     | Version:  2506                                  |
|   \\  /    A nd           | Website:  www.openfoam.com                      |
|    \\/     M anipulation  |                                                 |
\*---------------------------------------------------------------------------*/
FoamFile
{
    version     2.0;
    format      ascii;
    arch        "LSB;label=32;scalar=64";
    class       volVectorField;
    location    "50.8";
    object      U;
}
// * * * * * * * * * * * * * * * * * * * * * * * * * * * * * * * * * * * * * //

dimensions      [0 1 -1 0 0 0 0];

internalField   nonuniform List<vector> 
200
(
(-0.00011323 -0.000290853 0)
(0.00036125 -0.000456294 0)
(0.00127238 -0.000449719 0)
(0.00223499 -0.000402216 0)
(0.00308692 -0.00033707 0)
(0.0038334 -0.000282817 0)
(0.00449888 -0.000261204 0)
(0.00513067 -0.000281914 0)
(0.00578821 -0.000348579 0)
(0.00653359 -0.000463349 0)
(0.0074259 -0.000628092 0)
(0.00851545 -0.000841959 0)
(0.00983223 -0.00109415 0)
(0.0113626 -0.00134958 0)
(0.0130032 -0.00152428 0)
(0.0144638 -0.00143888 0)
(0.0151116 -0.000728246 0)
(0.0139915 0.00120779 0)
(0.0101042 0.00452094 0)
(0.00306401 0.00646843 0)
(0.000160121 -0.00143917 0)
(0.00136442 -0.00286621 0)
(0.00304613 -0.00333872 0)
(0.00482339 -0.00326374 0)
(0.00645942 -0.00294369 0)
(0.00789002 -0.00260566 0)
(0.00913987 -0.0023837 0)
(0.0102712 -0.00234063 0)
(0.0113559 -0.00249475 0)
(0.0124599 -0.00283766 0)
(0.013631 -0.00333874 0)
(0.0148856 -0.00393417 0)
(0.016189 -0.00449748 0)
(0.0174217 -0.00478907 0)
(0.0183343 -0.00438424 0)
(0.0184975 -0.00258783 0)
(0.0172531 0.00160259 0)
(0.0138331 0.00898467 0)
(0.00815766 0.0180298 0)
(0.00142387 0.0187685 0)
(0.000256428 -0.00318239 0)
(0.00187897 -0.00635056 0)
(0.0039297 -0.00734885 0)
(0.00599904 -0.00710629 0)
(0.00781999 -0.00634676 0)
(0.00933676 -0.00553875 0)
(0.0105933 -0.00493453 0)
(0.0116628 -0.00463727 0)
(0.0126154 -0.00465913 0)
(0.0135045 -0.00495703 0)
(0.0143588 -0.00544187 0)
(0.0151725 -0.00595961 0)
(0.015889 -0.0062436 0)
(0.0163733 -0.00584341 0)
(0.0163806 -0.00405083 0)
(0.0155234 0.000118505 0)
(0.0133637 0.00766179 0)
(0.0096954 0.018617 0)
(0.00498178 0.0294112 0)
(0.000638789 0.0259155 0)
(0.000302227 -0.00537651 0)
(0.00209475 -0.010392 0)
(0.0041843 -0.0116848 0)
(0.00614324 -0.0109965 0)
(0.00772922 -0.00956391 0)
(0.00893299 -0.00811911 0)
(0.00983673 -0.00701564 0)
(0.0105329 -0.00636848 0)
(0.0110946 -0.00616007 0)
(0.0115695 -0.00630094 0)
(0.0119803 -0.00664514 0)
(0.0123225 -0.00696227 0)
(0.0125532 -0.00687135 0)
(0.0125698 -0.0057547 0)
(0.0121861 -0.00270235 0)
(0.011101 0.00339844 0)
(0.00908808 0.0133073 0)
(0.00611998 0.026329 0)
(0.0027487 0.0372465 0)
(0.00023994 0.0298069 0)
(0.000325774 -0.00770949 0)
(0.00205294 -0.0143577 0)
(0.00384823 -0.0155928 0)
(0.00534193 -0.0141667 0)
(0.00637665 -0.0118924 0)
(0.00701726 -0.00975025 0)
(0.00738924 -0.00815031 0)
(0.00759915 -0.00717742 0)
(0.00771652 -0.00675979 0)
(0.00778046 -0.00675744 0)
(0.00780928 -0.00697997 0)
(0.00780281 -0.00714423 0)
(0.00773459 -0.00678667 0)
(0.00753683 -0.00516335 0)
(0.00708414 -0.00121573 0)
(0.00616507 0.00622297 0)
(0.00468859 0.0176471 0)
(0.00274902 0.0316553 0)
(0.000849078 0.041904 0)
(-5.913e-05 0.0314558 0)
(0.000309111 -0.00989232 0)
(0.00165479 -0.0176334 0)
(0.00275153 -0.0183714 0)
(0.00339983 -0.0159931 0)
(0.00359865 -0.0128643 0)
(0.0034986 -0.010133 0)
(0.00324874 -0.00818729 0)
(0.00294386 -0.00703425 0)
(0.00263095 -0.00653245 0)
(0.00233005 -0.00649712 0)
(0.00204731 -0.00670694 0)
(0.0017754 -0.00684026 0)
(0.00148684 -0.00636974 0)
(0.00113156 -0.00446196 0)
(0.00064382 2.3189e-05 0)
(-1.23131e-05 0.00821267 0)
(-0.000713581 0.0202809 0)
(-0.00122291 0.0341957 0)
(-0.00121422 0.0431595 0)
(-0.000342404 0.0309979 0)
(0.000216638 -0.0114531 0)
(0.000685115 -0.0193137 0)
(0.00054311 -0.0191091 0)
(-8.6791e-05 -0.0157653 0)
(-0.000981648 -0.0120148 0)
(-0.00193903 -0.00901342 0)
(-0.00284947 -0.00701917 0)
(-0.00367334 -0.00592186 0)
(-0.00440893 -0.00551225 0)
(-0.00506825 -0.00557291 0)
(-0.00566823 -0.00585815 0)
(-0.00623076 -0.00601415 0)
(-0.0067787 -0.00548184 0)
(-0.0073128 -0.00343758 0)
(-0.00776632 0.00113232 0)
(-0.00789942 0.00905624 0)
(-0.00738917 0.0202851 0)
(-0.00595134 0.0327576 0)
(-0.00361219 0.0401504 0)
(-0.000687306 0.0280971 0)
(-2.59303e-05 -0.0115514 0)
(-0.00114746 -0.018057 0)
(-0.00312056 -0.0166312 0)
(-0.00534267 -0.012765 0)
(-0.00740356 -0.00904112 0)
(-0.00915824 -0.00632205 0)
(-0.010614 -0.0046693 0)
(-0.0118341 -0.00387805 0)
(-0.012891 -0.00370962 0)
(-0.0138472 -0.00394447 0)
(-0.0147495 -0.00434428 0)
(-0.0156192 -0.00458025 0)
(-0.01643 -0.00416729 0)
(-0.017066 -0.00244599 0)
(-0.0172594 0.00133012 0)
(-0.0165652 0.00773644 0)
(-0.014545 0.0167134 0)
(-0.010944 0.0265866 0)
(-0.00614245 0.0323066 0)
(-0.00106254 0.0224884 0)
(-0.000543069 -0.00907313 0)
(-0.00386655 -0.0126572 0)
(-0.00776578 -0.0104531 0)
(-0.0112654 -0.00709894 0)
(-0.0139404 -0.00435027 0)
(-0.0158678 -0.00258789 0)
(-0.0172731 -0.00168324 0)
(-0.0183726 -0.00139901 0)
(-0.019334 -0.00152824 0)
(-0.020275 -0.00190725 0)
(-0.0212639 -0.0023771 0)
(-0.0223058 -0.00273249 0)
(-0.023314 -0.00268219 0)
(-0.0240703 -0.00183879 0)
(-0.0241828 0.000247947 0)
(-0.0230483 0.0039981 0)
(-0.0200892 0.00950123 0)
(-0.0149859 0.0158109 0)
(-0.0082988 0.0198197 0)
(-0.00143035 0.0142423 0)
(-0.00139631 -0.00302811 0)
(-0.00540679 -0.00334849 0)
(-0.00903253 -0.0021879 0)
(-0.0116055 -0.00107442 0)
(-0.0131079 -0.000364266 0)
(-0.0139008 -7.93884e-06 0)
(-0.0143253 0.000111941 0)
(-0.0146167 8.87252e-05 0)
(-0.014926 -1.98517e-05 0)
(-0.0153497 -0.000181883 0)
(-0.0159427 -0.000376013 0)
(-0.0167122 -0.000575046 0)
(-0.0175971 -0.000731827 0)
(-0.018435 -0.000768424 0)
(-0.0189189 -0.000563066 0)
(-0.0185909 6.93878e-05 0)
(-0.0168372 0.00132073 0)
(-0.0131487 0.00312789 0)
(-0.00778115 0.00474819 0)
(-0.00188672 0.00407053 0)
)
;

boundaryField
{
    leftWall
    {
        type            fixedValue;
        value           uniform (0 0 0);
    }
    rightWall
    {
        type            fixedValue;
        value           uniform (0 0 0);
    }
    topWall
    {
        type            fixedValue;
        value           uniform (0 0 0);
    }
    bottomWall
    {
        type            fixedValue;
        value           uniform (0 0 0);
    }
    frontAndBackPlanes
    {
        type            empty;
    }
}


// ************************************************************************* //
