0 	273.15
0.00200401 	273.155
0.00400802 	273.16
0.00601202 	273.165
0.00801603 	273.17
0.01002 	273.175
0.012024 	273.179
0.0140281 	273.184
0.0160321 	273.189
0.0180361 	273.194
0.0200401 	273.199
0.0220441 	273.204
0.0240481 	273.209
0.0260521 	273.214
0.0280561 	273.219
0.0300601 	273.224
0.0320641 	273.228
0.0340681 	273.233
0.0360721 	273.238
0.0380762 	273.243
0.0400802 	273.248
0.0420842 	273.253
0.0440882 	273.258
0.0460922 	273.263
0.0480962 	273.268
0.0501002 	273.272
0.0521042 	273.276
0.0541082 	273.28
0.0561122 	273.284
0.0581162 	273.288
0.0601202 	273.292
0.0621242 	273.296
0.0641283 	273.3
0.0661323 	273.304
0.0681363 	273.308
0.0701403 	273.312
0.0721443 	273.315
0.0741483 	273.319
0.0761523 	273.323
0.0781563 	273.327
0.0801603 	273.331
0.0821643 	273.335
0.0841683 	273.339
0.0861723 	273.343
0.0881764 	273.347
0.0901804 	273.351
0.0921844 	273.355
0.0941884 	273.358
0.0961924 	273.362
0.0981964 	273.366
0.1002 	273.37
0.102204 	273.372
0.104208 	273.375
0.106212 	273.377
0.108216 	273.38
0.11022 	273.382
0.112224 	273.385
0.114228 	273.387
0.116232 	273.39
0.118236 	273.392
0.12024 	273.395
0.122244 	273.397
0.124248 	273.399
0.126253 	273.402
0.128257 	273.404
0.130261 	273.407
0.132265 	273.409
0.134269 	273.412
0.136273 	273.414
0.138277 	273.417
0.140281 	273.419
0.142285 	273.422
0.144289 	273.424
0.146293 	273.426
0.148297 	273.429
0.150301 	273.431
0.152305 	273.432
0.154309 	273.434
0.156313 	273.435
0.158317 	273.436
0.160321 	273.437
0.162325 	273.438
0.164329 	273.44
0.166333 	273.441
0.168337 	273.442
0.170341 	273.443
0.172345 	273.445
0.174349 	273.446
0.176353 	273.447
0.178357 	273.448
0.180361 	273.449
0.182365 	273.451
0.184369 	273.452
0.186373 	273.453
0.188377 	273.454
0.190381 	273.455
0.192385 	273.457
0.194389 	273.458
0.196393 	273.459
0.198397 	273.46
0.200401 	273.461
0.202405 	273.462
0.204409 	273.462
0.206413 	273.463
0.208417 	273.463
0.210421 	273.464
0.212425 	273.464
0.214429 	273.464
0.216433 	273.465
0.218437 	273.465
0.220441 	273.466
0.222445 	273.466
0.224449 	273.467
0.226453 	273.467
0.228457 	273.467
0.230461 	273.468
0.232465 	273.468
0.234469 	273.469
0.236473 	273.469
0.238477 	273.469
0.240481 	273.47
0.242485 	273.47
0.244489 	273.471
0.246493 	273.471
0.248497 	273.472
0.250501 	273.472
0.252505 	273.472
0.254509 	273.472
0.256513 	273.472
0.258517 	273.472
0.260521 	273.472
0.262525 	273.472
0.264529 	273.472
0.266533 	273.472
0.268537 	273.472
0.270541 	273.472
0.272545 	273.472
0.274549 	273.472
0.276553 	273.472
0.278557 	273.472
0.280561 	273.472
0.282565 	273.472
0.284569 	273.472
0.286573 	273.472
0.288577 	273.472
0.290581 	273.472
0.292585 	273.472
0.294589 	273.472
0.296593 	273.472
0.298597 	273.472
0.300601 	273.472
0.302605 	273.472
0.304609 	273.472
0.306613 	273.472
0.308617 	273.472
0.310621 	273.472
0.312625 	273.472
0.314629 	273.471
0.316633 	273.471
0.318637 	273.471
0.320641 	273.471
0.322645 	273.471
0.324649 	273.471
0.326653 	273.471
0.328657 	273.47
0.330661 	273.47
0.332665 	273.47
0.334669 	273.47
0.336673 	273.47
0.338677 	273.47
0.340681 	273.47
0.342685 	273.469
0.344689 	273.469
0.346693 	273.469
0.348697 	273.469
0.350701 	273.469
0.352705 	273.469
0.354709 	273.469
0.356713 	273.468
0.358717 	273.468
0.360721 	273.468
0.362725 	273.468
0.364729 	273.468
0.366733 	273.468
0.368737 	273.467
0.370741 	273.467
0.372745 	273.467
0.374749 	273.467
0.376754 	273.467
0.378758 	273.467
0.380762 	273.466
0.382766 	273.466
0.38477 	273.466
0.386774 	273.466
0.388778 	273.466
0.390782 	273.466
0.392786 	273.465
0.39479 	273.465
0.396794 	273.465
0.398798 	273.465
0.400802 	273.465
0.402806 	273.465
0.40481 	273.465
0.406814 	273.464
0.408818 	273.464
0.410822 	273.464
0.412826 	273.464
0.41483 	273.464
0.416834 	273.464
0.418838 	273.464
0.420842 	273.463
0.422846 	273.463
0.42485 	273.463
0.426854 	273.463
0.428858 	273.463
0.430862 	273.463
0.432866 	273.463
0.43487 	273.462
0.436874 	273.462
0.438878 	273.462
0.440882 	273.462
0.442886 	273.462
0.44489 	273.462
0.446894 	273.462
0.448898 	273.461
0.450902 	273.461
0.452906 	273.461
0.45491 	273.461
0.456914 	273.461
0.458918 	273.461
0.460922 	273.461
0.462926 	273.461
0.46493 	273.46
0.466934 	273.46
0.468938 	273.46
0.470942 	273.46
0.472946 	273.46
0.47495 	273.46
0.476954 	273.46
0.478958 	273.46
0.480962 	273.459
0.482966 	273.459
0.48497 	273.459
0.486974 	273.459
0.488978 	273.459
0.490982 	273.459
0.492986 	273.459
0.49499 	273.459
0.496994 	273.458
0.498998 	273.458
0.501002 	273.458
0.503006 	273.458
0.50501 	273.458
0.507014 	273.458
0.509018 	273.458
0.511022 	273.457
0.513026 	273.457
0.51503 	273.457
0.517034 	273.457
0.519038 	273.457
0.521042 	273.457
0.523046 	273.457
0.52505 	273.456
0.527054 	273.456
0.529058 	273.456
0.531062 	273.456
0.533066 	273.456
0.53507 	273.456
0.537074 	273.455
0.539078 	273.455
0.541082 	273.455
0.543086 	273.455
0.54509 	273.455
0.547094 	273.455
0.549098 	273.455
0.551102 	273.454
0.553106 	273.454
0.55511 	273.454
0.557114 	273.454
0.559118 	273.453
0.561122 	273.453
0.563126 	273.453
0.56513 	273.453
0.567134 	273.452
0.569138 	273.452
0.571142 	273.452
0.573146 	273.452
0.57515 	273.451
0.577154 	273.451
0.579158 	273.451
0.581162 	273.451
0.583166 	273.45
0.58517 	273.45
0.587174 	273.45
0.589178 	273.45
0.591182 	273.45
0.593186 	273.449
0.59519 	273.449
0.597194 	273.449
0.599198 	273.449
0.601202 	273.448
0.603206 	273.448
0.60521 	273.448
0.607214 	273.447
0.609218 	273.447
0.611222 	273.446
0.613226 	273.446
0.61523 	273.446
0.617234 	273.445
0.619238 	273.445
0.621242 	273.445
0.623246 	273.444
0.625251 	273.444
0.627255 	273.444
0.629259 	273.443
0.631263 	273.443
0.633267 	273.443
0.635271 	273.442
0.637275 	273.442
0.639279 	273.442
0.641283 	273.441
0.643287 	273.441
0.645291 	273.44
0.647295 	273.44
0.649299 	273.44
0.651303 	273.439
0.653307 	273.439
0.655311 	273.439
0.657315 	273.438
0.659319 	273.438
0.661323 	273.437
0.663327 	273.437
0.665331 	273.437
0.667335 	273.436
0.669339 	273.436
0.671343 	273.436
0.673347 	273.435
0.675351 	273.435
0.677355 	273.434
0.679359 	273.434
0.681363 	273.434
0.683367 	273.433
0.685371 	273.433
0.687375 	273.432
0.689379 	273.432
0.691383 	273.432
0.693387 	273.431
0.695391 	273.431
0.697395 	273.43
0.699399 	273.43
0.701403 	273.43
0.703407 	273.43
0.705411 	273.429
0.707415 	273.429
0.709419 	273.429
0.711423 	273.429
0.713427 	273.429
0.715431 	273.428
0.717435 	273.428
0.719439 	273.428
0.721443 	273.428
0.723447 	273.428
0.725451 	273.428
0.727455 	273.427
0.729459 	273.427
0.731463 	273.427
0.733467 	273.427
0.735471 	273.427
0.737475 	273.426
0.739479 	273.426
0.741483 	273.426
0.743487 	273.426
0.745491 	273.426
0.747495 	273.425
0.749499 	273.425
0.751503 	273.425
0.753507 	273.426
0.755511 	273.426
0.757515 	273.427
0.759519 	273.427
0.761523 	273.428
0.763527 	273.428
0.765531 	273.429
0.767535 	273.429
0.769539 	273.43
0.771543 	273.43
0.773547 	273.431
0.775551 	273.431
0.777555 	273.431
0.779559 	273.432
0.781563 	273.432
0.783567 	273.433
0.785571 	273.433
0.787575 	273.434
0.789579 	273.434
0.791583 	273.435
0.793587 	273.435
0.795591 	273.436
0.797595 	273.436
0.799599 	273.437
0.801603 	273.438
0.803607 	273.44
0.805611 	273.442
0.807615 	273.444
0.809619 	273.446
0.811623 	273.448
0.813627 	273.45
0.815631 	273.452
0.817635 	273.454
0.819639 	273.456
0.821643 	273.458
0.823647 	273.46
0.825651 	273.462
0.827655 	273.464
0.829659 	273.466
0.831663 	273.468
0.833667 	273.47
0.835671 	273.472
0.837675 	273.474
0.839679 	273.476
0.841683 	273.478
0.843687 	273.48
0.845691 	273.482
0.847695 	273.484
0.849699 	273.486
0.851703 	273.491
0.853707 	273.496
0.855711 	273.501
0.857715 	273.506
0.859719 	273.51
0.861723 	273.515
0.863727 	273.52
0.865731 	273.525
0.867735 	273.53
0.869739 	273.535
0.871743 	273.54
0.873747 	273.545
0.875752 	273.55
0.877756 	273.555
0.87976 	273.56
0.881764 	273.564
0.883768 	273.569
0.885772 	273.574
0.887776 	273.579
0.88978 	273.584
0.891784 	273.589
0.893788 	273.594
0.895792 	273.599
0.897796 	273.604
0.8998 	273.609
0.901804 	273.617
0.903808 	273.626
0.905812 	273.635
0.907816 	273.644
0.90982 	273.653
0.911824 	273.662
0.913828 	273.671
0.915832 	273.68
0.917836 	273.689
0.91984 	273.698
0.921844 	273.707
0.923848 	273.716
0.925852 	273.725
0.927856 	273.734
0.92986 	273.743
0.931864 	273.752
0.933868 	273.761
0.935872 	273.77
0.937876 	273.779
0.93988 	273.788
0.941884 	273.797
0.943888 	273.806
0.945892 	273.815
0.947896 	273.824
0.9499 	273.833
0.951904 	273.845
0.953908 	273.857
0.955912 	273.869
0.957916 	273.881
0.95992 	273.894
0.961924 	273.906
0.963928 	273.918
0.965932 	273.93
0.967936 	273.942
0.96994 	273.954
0.971944 	273.967
0.973948 	273.979
0.975952 	273.991
0.977956 	274.003
0.97996 	274.015
0.981964 	274.027
0.983968 	274.04
0.985972 	274.052
0.987976 	274.064
0.98998 	274.076
0.991984 	274.088
0.993988 	274.1
0.995992 	274.112
0.997996 	274.125
1 	274.137
