/*--------------------------------*- C++ -*----------------------------------*\
| =========                 |                                                 |
| \\      /  F ield         | OpenFOAM: The Open Source CFD Toolbox           |
|  \\    /   O peration     | Version:  2506                                  |
|   \\  /    A nd           | Website:  www.openfoam.com                      |
|    \\/     M anipulation  |                                                 |
\*---------------------------------------------------------------------------*/
FoamFile
{
    version     2.0;
    format      ascii;
    arch        "LSB;label=32;scalar=64";
    class       surfaceScalarField;
    location    "54.6";
    object      phi;
}
// * * * * * * * * * * * * * * * * * * * * * * * * * * * * * * * * * * * * * //

dimensions      [1 0 -1 0 0 0 0];

oriented        oriented;

internalField   nonuniform List<scalar> 
370
(
3.54436e-05
-0.000113204
0.000243844
-0.00020835
0.000474881
-0.000230961
0.000691235
-0.000216261
0.000878388
-0.000187049
0.00103859
-0.00016009
0.00118308
-0.000144373
0.00132653
-0.000143333
0.00148416
-0.000157505
0.00167042
-0.000186141
0.00189822
-0.000227657
0.00217721
-0.000278855
0.0025097
-0.000332348
0.00288247
-0.000372616
0.00325239
-0.000369762
0.00352199
-0.000269446
0.0034914
3.07429e-05
0.00293865
0.000552907
0.00162228
0.00131651
0.00162236
0.000187473
-0.000300641
0.000568729
-0.000589505
0.00100261
-0.00066469
0.00141226
-0.000625733
0.00177019
-0.000544793
0.00207652
-0.000466216
0.00234473
-0.000412383
0.00259289
-0.00039129
0.00283846
-0.000402873
0.00309534
-0.000442812
0.00337146
-0.000503554
0.00366526
-0.000572429
0.00395984
-0.000626686
0.0042131
-0.000625632
0.00434461
-0.000501036
0.0042262
-0.0001508
0.00370706
0.000550125
0.00261038
0.00164981
0.00107555
0.00285155
0.00269802
0.000255373
-0.000555949
0.000724467
-0.00105842
0.00123186
-0.00117182
0.00169187
-0.00108544
0.00207784
-0.000930442
0.00239376
-0.000781806
0.00265574
-0.00067404
0.00288181
-0.000617035
0.00308693
-0.000607673
0.00328081
-0.000636359
0.0034663
-0.00068871
0.00363679
-0.000742573
0.00377114
-0.000760678
0.00382612
-0.000680261
0.00372966
-0.000404216
0.00338432
0.000194885
0.00270841
0.00122637
0.00170403
0.00265449
0.000604304
0.00395154
0.00330246
0.000281391
-0.000837245
0.000767262
-0.00154403
0.00125778
-0.00166198
0.00167038
-0.00149761
0.0019892
-0.00124882
0.00222786
-0.00102003
0.00240774
-0.00085348
0.00254783
-0.000756692
0.00266151
-0.000720915
0.00275638
-0.000730793
0.00283454
-0.000766427
0.00289128
-0.000798862
0.00291119
-0.000780122
0.00286213
-0.000630726
0.00269132
-0.000232952
0.00233424
0.000552406
0.00175626
0.00180477
0.00100817
0.00340297
0.000301184
0.00465885
0.00360379
0.000276336
-0.00111346
0.000709508
-0.00197687
0.0011017
-0.00205371
0.00138978
-0.00178517
0.00157772
-0.00143621
0.00169169
-0.00113347
0.00175768
-0.000918945
0.00179409
-0.000792584
0.00181184
-0.000738159
0.00181678
-0.000735209
0.00181118
-0.000760295
0.00179303
-0.000780175
0.00175286
-0.000739389
0.00166949
-0.000546789
0.00150817
-7.10857e-05
0.00122965
0.000831464
0.000830689
0.00220422
0.000385407
0.0038487
5.89281e-05
0.00498569
0.00366288
0.000227996
-0.00134131
0.000520918
-0.00226941
0.000721844
-0.0022541
0.000809054
-0.0018718
0.000814202
-0.00144077
0.0007736
-0.00109228
0.000712071
-0.000856848
0.000642745
-0.000722694
0.000571637
-0.000666484
0.000501527
-0.000664521
0.000433055
-0.000691231
0.000363318
-0.000709827
0.000283816
-0.000659259
0.000180813
-0.000443147
4.16539e-05
6.87124e-05
-0.000122068
0.000995801
-0.00027043
0.00235315
-0.000323972
0.00390274
-0.000207567
0.00486966
0.00345546
0.000108231
-0.00144938
0.000132732
-0.00229347
2.51526e-05
-0.00214595
-0.000165352
-0.00168067
-0.000384528
-0.00122099
-0.000598738
-0.000877478
-0.000794643
-0.000660355
-0.000970298
-0.000546451
-0.00112786
-0.000508329
-0.00127039
-0.000521381
-0.0014017
-0.000559305
-0.0015266
-0.000584297
-0.00164862
-0.000536591
-0.00176229
-0.000328817
-0.00183772
0.000144794
-0.00180928
0.000967992
-0.0015981
0.00214256
-0.00114598
0.00345113
-0.000500995
0.00422504
0.00295462
-0.000132379
-0.00131681
-0.000530704
-0.00189467
-0.0010497
-0.00162635
-0.00156109
-0.00116866
-0.00200595
-0.000775523
-0.0023741
-0.000508735
-0.00267707
-0.000356806
-0.00293215
-0.000290798
-0.00315542
-0.000284477
-0.00335961
-0.000316618
-0.00355286
-0.000365473
-0.00373542
-0.000401145
-0.00389237
-0.000379054
-0.00398283
-0.000237759
-0.00393146
9.40178e-05
-0.00363615
0.000673267
-0.00300314
0.00151009
-0.00200589
0.00245434
-0.000810618
0.00303011
0.00214414
-0.000505253
-0.000811337
-0.00142083
-0.000978573
-0.00232076
-0.000725813
-0.00304025
-0.000448559
-0.00356726
-0.000247936
-0.0039449
-0.000130548
-0.00422519
-7.59961e-05
-0.00445236
-6.31127e-05
-0.00465916
-7.71739e-05
-0.00486711
-0.000108176
-0.00508554
-0.000146559
-0.00530661
-0.000179594
-0.00549663
-0.000188549
-0.00558682
-0.000147095
-0.00547396
-1.83743e-05
-0.00502146
0.000221221
-0.00411032
0.000599388
-0.00271608
0.00106048
-0.00107605
0.00139036
0.00106821
-0.000811095
-0.00178913
-0.00251433
-0.00296229
-0.00320968
-0.00333973
-0.00341526
-0.00347793
-0.00355469
-0.00366246
-0.00380864
-0.00398786
-0.00417605
-0.0043228
-0.00434084
-0.0041193
-0.00351961
-0.00245886
-0.0010683
)
;

boundaryField
{
    leftWall
    {
        type            calculated;
        value           nonuniform List<scalar> 10(0 3.38813e-21 0 0 0 0 0 0 0 0);
    }
    rightWall
    {
        type            calculated;
        value           nonuniform List<scalar> 10(1.0842e-19 0 0 0 0 0 0 0 0 0);
    }
    topWall
    {
        type            calculated;
        value           uniform 0;
    }
    bottomWall
    {
        type            calculated;
        value           uniform 0;
    }
    frontAndBackPlanes
    {
        type            empty;
    }
}


// ************************************************************************* //
