/*--------------------------------*- C++ -*----------------------------------*\
| =========                 |                                                 |
| \\      /  F ield         | OpenFOAM: The Open Source CFD Toolbox           |
|  \\    /   O peration     | Version:  2506                                  |
|   \\  /    A nd           | Website:  www.openfoam.com                      |
|    \\/     M anipulation  |                                                 |
\*---------------------------------------------------------------------------*/
FoamFile
{
    version     2.0;
    format      ascii;
    arch        "LSB;label=32;scalar=64";
    class       volScalarField;
    location    "43.4";
    object      p;
}
// * * * * * * * * * * * * * * * * * * * * * * * * * * * * * * * * * * * * * //

dimensions      [1 -1 -2 0 0 0 0];

internalField   nonuniform List<scalar> 
200
(
100000
100000
100000
100000
100000
100000
100000
100000
100000
99999.9
99999.9
99999.9
99999.8
99999.8
99999.7
99999.6
99999.5
99999.3
99999.1
99999
99733.3
99733.4
99733.4
99733.4
99733.3
99733.3
99733.3
99733.3
99733.3
99733.3
99733.2
99733.2
99733.2
99733.2
99733.1
99733.1
99733
99733
99732.9
99733
99466.7
99466.7
99466.7
99466.7
99466.7
99466.7
99466.7
99466.7
99466.7
99466.6
99466.6
99466.6
99466.6
99466.6
99466.5
99466.5
99466.5
99466.5
99466.5
99466.5
99200.2
99200.2
99200.2
99200.2
99200.1
99200.1
99200.1
99200.1
99200.1
99200.1
99200.1
99200
99200
99200
99200
99200
99200
99200
99200
99200
98933.7
98933.7
98933.7
98933.7
98933.6
98933.6
98933.6
98933.6
98933.6
98933.6
98933.6
98933.5
98933.5
98933.5
98933.5
98933.5
98933.5
98933.5
98933.5
98933.6
98667.3
98667.3
98667.3
98667.3
98667.3
98667.2
98667.2
98667.2
98667.2
98667.2
98667.2
98667.2
98667.1
98667.1
98667.1
98667.1
98667.1
98667.1
98667.1
98667.2
98401.1
98401.1
98401.1
98401
98401
98401
98401
98401
98401
98400.9
98400.9
98400.9
98400.9
98400.9
98400.9
98400.9
98400.9
98401
98401
98401
98135
98135
98134.9
98134.9
98134.9
98134.9
98134.9
98134.9
98134.9
98134.9
98134.9
98134.9
98134.9
98134.9
98134.9
98135
98135
98135.1
98135.2
98135.2
97869
97868.9
97868.9
97868.9
97869
97869
97869
97869.1
97869.1
97869.2
97869.2
97869.2
97869.3
97869.3
97869.4
97869.5
97869.6
97869.7
97869.8
97869.8
97602.8
97602.8
97602.9
97603
97603.1
97603.3
97603.4
97603.5
97603.6
97603.7
97603.8
97603.9
97604
97604.1
97604.3
97604.4
97604.6
97604.8
97604.9
97605
)
;

boundaryField
{
    leftWall
    {
        type            zeroGradient;
    }
    rightWall
    {
        type            zeroGradient;
    }
    topWall
    {
        type            zeroGradient;
    }
    bottomWall
    {
        type            zeroGradient;
    }
    frontAndBackPlanes
    {
        type            empty;
    }
}


// ************************************************************************* //
