/*--------------------------------*- C++ -*----------------------------------*\
| =========                 |                                                 |
| \\      /  F ield         | OpenFOAM: The Open Source CFD Toolbox           |
|  \\    /   O peration     | Version:  2506                                  |
|   \\  /    A nd           | Website:  www.openfoam.com                      |
|    \\/     M anipulation  |                                                 |
\*---------------------------------------------------------------------------*/
FoamFile
{
    version     2.0;
    format      ascii;
    arch        "LSB;label=32;scalar=64";
    class       volScalarField;
    location    "43.4";
    object      T;
}
// * * * * * * * * * * * * * * * * * * * * * * * * * * * * * * * * * * * * * //

dimensions      [0 0 0 1 0 0 0];

internalField   nonuniform List<scalar> 
200
(
273.15
273.15
273.15
273.15
273.15
273.15
273.149
273.149
273.149
273.149
273.149
273.149
273.149
273.15
273.153
273.161
273.183
273.246
273.411
273.795
273.151
273.153
273.154
273.156
273.157
273.157
273.157
273.157
273.157
273.157
273.156
273.156
273.156
273.155
273.156
273.161
273.181
273.243
273.419
273.817
273.153
273.158
273.164
273.169
273.172
273.174
273.174
273.174
273.174
273.173
273.172
273.17
273.168
273.165
273.164
273.168
273.188
273.258
273.447
273.845
273.156
273.169
273.181
273.19
273.197
273.2
273.202
273.201
273.2
273.198
273.195
273.191
273.186
273.18
273.176
273.178
273.202
273.281
273.482
273.873
273.161
273.184
273.205
273.221
273.232
273.237
273.239
273.238
273.236
273.232
273.227
273.22
273.211
273.201
273.193
273.196
273.225
273.314
273.524
273.901
273.167
273.203
273.236
273.261
273.276
273.284
273.286
273.284
273.281
273.277
273.271
273.262
273.249
273.234
273.224
273.23
273.269
273.37
273.581
273.928
273.175
273.227
273.273
273.308
273.33
273.34
273.343
273.343
273.342
273.34
273.335
273.328
273.318
273.307
273.302
273.314
273.357
273.456
273.648
273.954
273.185
273.256
273.318
273.362
273.39
273.406
273.416
273.423
273.43
273.435
273.438
273.439
273.437
273.435
273.436
273.449
273.488
273.573
273.731
273.984
273.197
273.285
273.36
273.416
273.455
273.484
273.506
273.524
273.54
273.555
273.569
273.58
273.591
273.6
273.609
273.624
273.655
273.718
273.833
274.021
273.203
273.299
273.38
273.443
273.491
273.529
273.561
273.588
273.614
273.638
273.661
273.684
273.706
273.729
273.753
273.777
273.809
273.859
273.937
274.061
)
;

boundaryField
{
    leftWall
    {
        type            fixedValue;
        value           uniform 273.15;
    }
    rightWall
    {
        type            customNeumannDirichletCoupledBoundary;
        refValue        nonuniform List<scalar> 10(274.125 274.126 274.128 274.13 274.132 274.134 274.136 274.138 274.14 274.141);
        refGradient     uniform 0;
        valueFraction   uniform 1;
        source          uniform 0;
        value           nonuniform List<scalar> 10(274.125 274.126 274.128 274.13 274.132 274.134 274.136 274.138 274.14 274.141);
        kappaMethod     fluidThermo;
    }
    topWall
    {
        type            zeroGradient;
    }
    bottomWall
    {
        type            zeroGradient;
    }
    frontAndBackPlanes
    {
        type            empty;
    }
}


// ************************************************************************* //
