/*--------------------------------*- C++ -*----------------------------------*\
| =========                 |                                                 |
| \\      /  F ield         | OpenFOAM: The Open Source CFD Toolbox           |
|  \\    /   O peration     | Version:  2506                                  |
|   \\  /    A nd           | Website:  www.openfoam.com                      |
|    \\/     M anipulation  |                                                 |
\*---------------------------------------------------------------------------*/
FoamFile
{
    version     2.0;
    format      ascii;
    arch        "LSB;label=32;scalar=64";
    class       volVectorField;
    location    "88.6";
    object      U;
}
// * * * * * * * * * * * * * * * * * * * * * * * * * * * * * * * * * * * * * //

dimensions      [0 1 -1 0 0 0 0];

internalField   nonuniform List<vector> 
200
(
(0.00025219 -0.000827296 0)
(0.00161822 -0.00109932 0)
(0.00321543 -0.000853048 0)
(0.00458004 -0.000516861 0)
(0.00550849 -0.000248822 0)
(0.00608734 -9.19343e-05 0)
(0.00645521 -4.08962e-05 0)
(0.00674423 -7.21741e-05 0)
(0.00706025 -0.000162002 0)
(0.00748131 -0.000294675 0)
(0.0080636 -0.000464094 0)
(0.00884757 -0.000670272 0)
(0.00985758 -0.000910191 0)
(0.0110868 -0.00116066 0)
(0.0124525 -0.00134835 0)
(0.0136955 -0.00129651 0)
(0.0142242 -0.000638242 0)
(0.0131173 0.00119292 0)
(0.00942761 0.0043023 0)
(0.00285104 0.00604282 0)
(0.000396303 -0.00347674 0)
(0.00264169 -0.00564359 0)
(0.00521062 -0.00532324 0)
(0.00752265 -0.00409051 0)
(0.009287 -0.00279959 0)
(0.01053 -0.00183584 0)
(0.0114005 -0.00130228 0)
(0.012062 -0.00116198 0)
(0.0126501 -0.00132863 0)
(0.0132606 -0.00171452 0)
(0.0139499 -0.0022465 0)
(0.0147357 -0.00285574 0)
(0.0155895 -0.00344203 0)
(0.0164125 -0.00380985 0)
(0.0169927 -0.00357532 0)
(0.0169508 -0.00206073 0)
(0.015679 0.00172512 0)
(0.0124823 0.00853656 0)
(0.00729711 0.0168733 0)
(0.00125255 0.0173421 0)
(0.000425979 -0.00650559 0)
(0.00278738 -0.0108754 0)
(0.00539682 -0.0105785 0)
(0.00773136 -0.00844142 0)
(0.00951973 -0.00607094 0)
(0.0107908 -0.00419684 0)
(0.0116821 -0.00303034 0)
(0.0123352 -0.00252284 0)
(0.0128589 -0.00252534 0)
(0.0133227 -0.00287224 0)
(0.0137593 -0.00340922 0)
(0.0141655 -0.00397673 0)
(0.0144948 -0.0043535 0)
(0.0146378 -0.00416504 0)
(0.0143927 -0.00277784 0)
(0.0134292 0.000749484 0)
(0.0114019 0.00738033 0)
(0.00814218 0.0172124 0)
(0.00407626 0.0269041 0)
(0.000483661 0.0234457 0)
(0.000408576 -0.00951993 0)
(0.00256498 -0.015845 0)
(0.00479059 -0.0153622 0)
(0.00666551 -0.0122547 0)
(0.00801317 -0.00884044 0)
(0.00891168 -0.00613027 0)
(0.00950364 -0.00438826 0)
(0.00990716 -0.00352063 0)
(0.0101967 -0.00330594 0)
(0.0104105 -0.00350973 0)
(0.0105625 -0.00391763 0)
(0.0106459 -0.00430646 0)
(0.0106269 -0.00436571 0)
(0.0104257 -0.00358775 0)
(0.00989616 -0.00117846 0)
(0.00881284 0.00388256 0)
(0.00703217 0.012361 0)
(0.00456124 0.0237273 0)
(0.00188502 0.033247 0)
(0.000100981 0.0263223 0)
(0.000369045 -0.0122027 0)
(0.00210285 -0.0199082 0)
(0.00365156 -0.018931 0)
(0.00477315 -0.0148207 0)
(0.00543964 -0.0105089 0)
(0.00579184 -0.00717214 0)
(0.00596988 -0.00504166 0)
(0.00605749 -0.00393627 0)
(0.00608975 -0.00355902 0)
(0.00607696 -0.0036295 0)
(0.00602138 -0.00390709 0)
(0.00592004 -0.00413904 0)
(0.00575445 -0.003957 0)
(0.00547211 -0.00275522 0)
(0.00496524 0.000368 0)
(0.00412157 0.00641345 0)
(0.00290225 0.0159369 0)
(0.00144095 0.0278264 0)
(0.000153837 0.0364834 0)
(-0.000168918 0.027111 0)
(0.000296635 -0.0143167 0)
(0.00135082 -0.0225774 0)
(0.0019213 -0.0207814 0)
(0.00204214 -0.0157509 0)
(0.00187597 -0.0108275 0)
(0.001606 -0.00718412 0)
(0.00133536 -0.00492662 0)
(0.00109227 -0.00376406 0)
(0.000869882 -0.00334376 0)
(0.000657088 -0.00337228 0)
(0.000448271 -0.00360876 0)
(0.000236866 -0.00378417 0)
(3.39263e-06 -0.0034821 0)
(-0.000290707 -0.00202646 0)
(-0.000698189 0.00152131 0)
(-0.00119763 0.00805852 0)
(-0.00167029 0.0178533 0)
(-0.00186607 0.0293248 0)
(-0.00150456 0.0366649 0)
(-0.000367489 0.0261133 0)
(0.000166582 -0.0154517 0)
(0.000123074 -0.0231565 0)
(-0.000686514 -0.020289 0)
(-0.00181382 -0.0146296 0)
(-0.00292371 -0.00957629 0)
(-0.00385918 -0.0060639 0)
(-0.00459914 -0.00399432 0)
(-0.00518444 -0.00298415 0)
(-0.0056635 -0.00266839 0)
(-0.00607093 -0.00276956 0)
(-0.00642925 -0.00305352 0)
(-0.00675807 -0.00323628 0)
(-0.00707569 -0.0028826 0)
(-0.00737945 -0.00134053 0)
(-0.00760284 0.00220734 0)
(-0.00755486 0.00845413 0)
(-0.0069624 0.0174523 0)
(-0.00555468 0.027554 0)
(-0.00333608 0.0334574 0)
(-0.000618357 0.023213 0)
(-0.000136113 -0.0148563 0)
(-0.00191265 -0.0205574 0)
(-0.00448038 -0.0167088 0)
(-0.00699003 -0.0111282 0)
(-0.00901449 -0.00665694 0)
(-0.0105107 -0.00379864 0)
(-0.0115912 -0.00226138 0)
(-0.0123904 -0.00162831 0)
(-0.0130162 -0.00156482 0)
(-0.0135447 -0.00183077 0)
(-0.0140246 -0.00221955 0)
(-0.0144779 -0.00247588 0)
(-0.0148865 -0.00222724 0)
(-0.0151596 -0.000956687 0)
(-0.0150806 0.00193925 0)
(-0.0143167 0.00696179 0)
(-0.0124905 0.0141008 0)
(-0.0093645 0.0220052 0)
(-0.00523507 0.0265013 0)
(-0.000893225 0.0182892 0)
(-0.000740864 -0.01141 0)
(-0.00483975 -0.0138406 0)
(-0.00912389 -0.0098163 0)
(-0.0125487 -0.00548373 0)
(-0.0148265 -0.0025148 0)
(-0.0162133 -0.00090145 0)
(-0.0170502 -0.000236311 0)
(-0.0176035 -0.000146167 0)
(-0.0180448 -0.000381116 0)
(-0.0184798 -0.000783953 0)
(-0.0189655 -0.00123026 0)
(-0.0195058 -0.0015715 0)
(-0.020035 -0.00159193 0)
(-0.020386 -0.000991278 0)
(-0.0202507 0.000597564 0)
(-0.0191597 0.00353505 0)
(-0.0166209 0.00788924 0)
(-0.012356 0.0128973 0)
(-0.00681333 0.0160289 0)
(-0.00116218 0.0114188 0)
(-0.00181297 -0.00388037 0)
(-0.00656049 -0.00360534 0)
(-0.0101817 -0.0018603 0)
(-0.0122894 -0.000547394 0)
(-0.0131871 0.000124836 0)
(-0.0134252 0.000367445 0)
(-0.0133953 0.000377336 0)
(-0.0133137 0.0002785 0)
(-0.0132994 0.000133056 0)
(-0.0134166 -3.30933e-05 0)
(-0.0136952 -0.000206835 0)
(-0.0141335 -0.000373466 0)
(-0.0146791 -0.000502577 0)
(-0.0152029 -0.000537208 0)
(-0.015461 -0.000380886 0)
(-0.0150902 0.000118503 0)
(-0.0135977 0.00109611 0)
(-0.0105715 0.00250363 0)
(-0.00622066 0.00376154 0)
(-0.0014917 0.00320701 0)
)
;

boundaryField
{
    leftWall
    {
        type            fixedValue;
        value           uniform (0 0 0);
    }
    rightWall
    {
        type            fixedValue;
        value           uniform (0 0 0);
    }
    topWall
    {
        type            fixedValue;
        value           uniform (0 0 0);
    }
    bottomWall
    {
        type            fixedValue;
        value           uniform (0 0 0);
    }
    frontAndBackPlanes
    {
        type            empty;
    }
}


// ************************************************************************* //
