/*--------------------------------*- C++ -*----------------------------------*\
| =========                 |                                                 |
| \\      /  F ield         | OpenFOAM: The Open Source CFD Toolbox           |
|  \\    /   O peration     | Version:  2506                                  |
|   \\  /    A nd           | Website:  www.openfoam.com                      |
|    \\/     M anipulation  |                                                 |
\*---------------------------------------------------------------------------*/
FoamFile
{
    version     2.0;
    format      ascii;
    arch        "LSB;label=32;scalar=64";
    class       surfaceScalarField;
    location    "65.8";
    object      phi;
}
// * * * * * * * * * * * * * * * * * * * * * * * * * * * * * * * * * * * * * //

dimensions      [1 0 -1 0 0 0 0];

oriented        oriented;

internalField   nonuniform List<scalar> 
370
(
8.99903e-05
-0.000157917
0.000359864
-0.000269803
0.000634318
-0.000274349
0.000868103
-0.000233658
0.00105161
-0.000183369
0.0011952
-0.000143432
0.00131704
-0.000121687
0.00143621
-0.000119012
0.00156981
-0.000133431
0.00173238
-0.000162403
0.00193608
-0.000203523
0.00218999
-0.000253734
0.00249683
-0.000306644
0.00284527
-0.000348246
0.00319529
-0.000349823
0.00345269
-0.000257193
0.00342104
3.1855e-05
0.00287917
0.000542068
0.00158805
0.00129131
0.00158816
0.00024419
-0.000402064
0.000703095
-0.000728587
0.00119375
-0.000764827
0.00162848
-0.000668183
0.00198379
-0.00053846
0.00226865
-0.000428068
0.00250496
-0.000357761
0.00271661
-0.000330429
0.00292414
-0.000340731
0.00314248
-0.000380503
0.00337962
-0.000440425
0.00363437
-0.000508238
0.00389142
-0.000563437
0.00411196
-0.000568522
0.00422028
-0.000457878
0.00409331
-0.000129966
0.00358394
0.000541492
0.00251944
0.00160683
0.00103489
0.00277608
0.00262317
0.000299649
-0.000701646
0.000824999
-0.00125375
0.00136829
-0.00130785
0.00183825
-0.00113784
0.00221346
-0.000913342
0.00250548
-0.000719757
0.0027367
-0.000588643
0.00292903
-0.00052243
0.00309925
-0.00051062
0.00325753
-0.000538458
0.00340686
-0.000589423
0.00354128
-0.000642326
0.00364164
-0.000663454
0.00366845
-0.00059499
0.00355502
-0.0003441
0.00320998
0.000215421
0.00255737
0.00119444
0.00159973
0.00256478
0.000560801
0.00381527
0.00318409
0.000308763
-0.00101032
0.000820782
-0.00176553
0.00131828
-0.00180501
0.00172054
-0.00153971
0.0020191
-0.00121149
0.00223376
-0.000933993
0.00238917
-0.000743637
0.00250524
-0.000638086
0.00259493
-0.000599901
0.00266511
-0.000608237
0.00271757
-0.000641476
0.00274822
-0.000672565
0.00274356
-0.000658379
0.0026749
-0.000525913
0.00249489
-0.000163673
0.00214603
0.000564691
0.00159893
0.00174193
0.000903566
0.00326052
0.000259519
0.00445961
0.00344375
0.00028601
-0.00129623
0.000715262
-0.0021945
0.0010873
-0.00217665
0.00134876
-0.00180071
0.00151235
-0.0013746
0.0016077
-0.00102887
0.00166023
-0.000795694
0.00168601
-0.000663402
0.00169364
-0.000607077
0.00168751
-0.000601655
0.00166959
-0.000623097
0.00163855
-0.000641068
0.00158642
-0.000605782
0.00149424
-0.000433269
0.00132964
1.39884e-06
0.00106261
0.000832197
0.000694615
0.00211036
0.000298419
0.00365712
2.74564e-05
0.00473089
0.00347134
0.000221583
-0.00151769
0.000484588
-0.00245719
0.000644923
-0.00233653
0.000698097
-0.00185339
0.000683091
-0.00135908
0.000634962
-0.000980239
0.000573786
-0.000734025
0.000508041
-0.000597174
0.000440783
-0.000539342
0.00037363
-0.000534026
0.000307286
-0.000556277
0.000239471
-0.000572772
0.00016246
-0.000528281
6.36268e-05
-0.000333933
-6.62921e-05
0.000131837
-0.000214899
0.000981316
-0.000340874
0.00223682
-0.000365893
0.00368256
-0.000221572
0.00458688
0.00324989
8.67346e-05
-0.0016043
6.22077e-05
-0.00243231
-9.25906e-05
-0.00218126
-0.000312201
-0.00163326
-0.000539435
-0.00113133
-0.00074649
-0.000772681
-0.000927063
-0.000552961
-0.00108417
-0.000439586
-0.00122241
-0.000400619
-0.00134555
-0.00041041
-0.00145724
-0.000444115
-0.00156202
-0.00046751
-0.00166347
-0.000426353
-0.0017566
-0.000240303
-0.00181268
0.000188421
-0.00177243
0.000941568
-0.00156005
0.00202491
-0.00111654
0.00323947
-0.000487081
0.00395773
0.00276294
-0.000166043
-0.0014381
-0.000621378
-0.00197659
-0.00118066
-0.00162148
-0.001704
-0.00110942
-0.00213827
-0.000696557
-0.00248184
-0.000428619
-0.00275308
-0.000281247
-0.00297329
-0.000218906
-0.00316032
-0.000213131
-0.00332733
-0.000242944
-0.00348266
-0.000288344
-0.00362721
-0.00032251
-0.00374801
-0.000305104
-0.00380821
-0.000179659
-0.00373934
0.000120003
-0.00344766
0.000650336
-0.00284359
0.00142126
-0.00189862
0.00229487
-0.000767165
0.00282655
0.00199588
-0.000553644
-0.000884288
-0.00152349
-0.00100634
-0.00244043
-0.000704062
-0.0031433
-0.000406045
-0.00363524
-0.000204133
-0.00397051
-9.28937e-05
-0.00420659
-4.47159e-05
-0.00438959
-3.54788e-05
-0.00455201
-5.02961e-05
-0.00471449
-8.00711e-05
-0.00488618
-0.000116257
-0.00506071
-0.000147606
-0.0052081
-0.000157338
-0.00526603
-0.000121372
-0.00514307
-2.60104e-06
-0.00470672
0.000214345
-0.00384783
0.000562707
-0.00254087
0.000988198
-0.00100612
0.00129203
0.000989863
-0.000884106
-0.00189005
-0.00259364
-0.0029992
-0.00320288
-0.00329534
-0.00333964
-0.00337473
-0.00342466
-0.00350438
-0.00362031
-0.0037676
-0.00392464
-0.00404573
-0.00404807
-0.00383347
-0.00327053
-0.00228212
-0.000989932
)
;

boundaryField
{
    leftWall
    {
        type            calculated;
        value           nonuniform List<scalar> 10(0 0 0 0 0 0 -2.1684e-19 0 0 0);
    }
    rightWall
    {
        type            calculated;
        value           nonuniform List<scalar> 10(0 0 0 0 0 0 0 0 4.33681e-19 4.33681e-19);
    }
    topWall
    {
        type            calculated;
        value           uniform 0;
    }
    bottomWall
    {
        type            calculated;
        value           uniform 0;
    }
    frontAndBackPlanes
    {
        type            empty;
    }
}


// ************************************************************************* //
