/*--------------------------------*- C++ -*----------------------------------*\
| =========                 |                                                 |
| \\      /  F ield         | OpenFOAM: The Open Source CFD Toolbox           |
|  \\    /   O peration     | Version:  2506                                  |
|   \\  /    A nd           | Website:  www.openfoam.com                      |
|    \\/     M anipulation  |                                                 |
\*---------------------------------------------------------------------------*/
FoamFile
{
    version     2.0;
    format      ascii;
    arch        "LSB;label=32;scalar=64";
    class       volScalarField;
    location    "11";
    object      T;
}
// * * * * * * * * * * * * * * * * * * * * * * * * * * * * * * * * * * * * * //

dimensions      [0 0 0 1 0 0 0];

internalField   nonuniform List<scalar> 
200
(
273.15
273.149
273.149
273.148
273.148
273.148
273.148
273.148
273.148
273.148
273.148
273.148
273.148
273.149
273.15
273.156
273.174
273.23
273.39
273.781
273.149
273.147
273.146
273.145
273.144
273.144
273.144
273.144
273.144
273.144
273.144
273.144
273.144
273.145
273.146
273.152
273.17
273.23
273.402
273.806
273.148
273.144
273.141
273.14
273.139
273.139
273.138
273.138
273.138
273.138
273.138
273.138
273.139
273.139
273.141
273.148
273.171
273.241
273.43
273.835
273.146
273.14
273.136
273.134
273.133
273.132
273.132
273.132
273.132
273.132
273.132
273.132
273.132
273.133
273.136
273.145
273.174
273.256
273.458
273.86
273.145
273.137
273.131
273.128
273.127
273.126
273.126
273.126
273.126
273.126
273.126
273.126
273.127
273.128
273.131
273.143
273.178
273.271
273.485
273.88
273.144
273.133
273.126
273.122
273.121
273.12
273.12
273.12
273.12
273.12
273.12
273.12
273.121
273.123
273.129
273.144
273.186
273.291
273.514
273.898
273.142
273.13
273.121
273.117
273.115
273.114
273.114
273.114
273.114
273.114
273.114
273.116
273.118
273.124
273.135
273.158
273.212
273.326
273.547
273.91
273.141
273.126
273.116
273.111
273.109
273.108
273.108
273.108
273.108
273.109
273.11
273.114
273.122
273.138
273.162
273.201
273.267
273.384
273.59
273.922
273.14
273.123
273.111
273.105
273.103
273.102
273.102
273.102
273.103
273.104
273.108
273.117
273.136
273.17
273.219
273.282
273.362
273.476
273.653
273.94
273.139
273.121
273.108
273.101
273.098
273.097
273.097
273.097
273.098
273.099
273.103
273.115
273.142
273.19
273.26
273.348
273.45
273.571
273.728
273.963
)
;

boundaryField
{
    leftWall
    {
        type            fixedValue;
        value           uniform 273.15;
    }
    rightWall
    {
        type            customNeumannDirichletCoupledBoundary;
        refValue        nonuniform List<scalar> 10(274.124 274.125 274.127 274.128 274.13 274.131 274.132 274.133 274.134 274.135);
        refGradient     uniform 0;
        valueFraction   uniform 1;
        source          uniform 0;
        value           nonuniform List<scalar> 10(274.124 274.125 274.127 274.128 274.13 274.131 274.132 274.133 274.134 274.135);
        kappaMethod     fluidThermo;
    }
    topWall
    {
        type            zeroGradient;
    }
    bottomWall
    {
        type            zeroGradient;
    }
    frontAndBackPlanes
    {
        type            empty;
    }
}


// ************************************************************************* //
