/*--------------------------------*- C++ -*----------------------------------*\
| =========                 |                                                 |
| \\      /  F ield         | OpenFOAM: The Open Source CFD Toolbox           |
|  \\    /   O peration     | Version:  2506                                  |
|   \\  /    A nd           | Website:  www.openfoam.com                      |
|    \\/     M anipulation  |                                                 |
\*---------------------------------------------------------------------------*/
FoamFile
{
    version     2.0;
    format      ascii;
    arch        "LSB;label=32;scalar=64";
    class       volScalarField;
    location    "83";
    object      T;
}
// * * * * * * * * * * * * * * * * * * * * * * * * * * * * * * * * * * * * * //

dimensions      [0 0 0 1 0 0 0];

internalField   nonuniform List<scalar> 
200
(
273.157
273.17
273.18
273.187
273.191
273.194
273.195
273.197
273.198
273.199
273.201
273.203
273.205
273.208
273.212
273.221
273.243
273.306
273.466
273.826
273.164
273.189
273.207
273.218
273.224
273.227
273.228
273.228
273.229
273.23
273.232
273.233
273.235
273.236
273.237
273.242
273.261
273.322
273.489
273.854
273.174
273.217
273.248
273.266
273.276
273.279
273.28
273.28
273.279
273.279
273.279
273.279
273.278
273.277
273.274
273.276
273.294
273.358
273.532
273.888
273.185
273.249
273.294
273.321
273.334
273.339
273.339
273.337
273.335
273.333
273.331
273.329
273.325
273.319
273.313
273.312
273.33
273.4
273.58
273.919
273.197
273.283
273.343
273.378
273.394
273.398
273.397
273.393
273.39
273.387
273.384
273.379
273.372
273.363
273.352
273.35
273.372
273.449
273.631
273.948
273.21
273.318
273.394
273.435
273.453
273.456
273.454
273.45
273.447
273.444
273.441
273.436
273.427
273.415
273.404
273.404
273.433
273.516
273.69
273.972
273.224
273.357
273.447
273.492
273.51
273.514
273.513
273.513
273.512
273.513
273.511
273.508
273.501
273.492
273.487
273.492
273.523
273.601
273.754
273.996
273.242
273.399
273.497
273.546
273.567
273.577
273.583
273.589
273.595
273.6
273.604
273.606
273.605
273.604
273.604
273.613
273.641
273.705
273.828
274.023
273.262
273.438
273.542
273.597
273.626
273.645
273.659
273.673
273.685
273.697
273.708
273.718
273.727
273.735
273.742
273.754
273.778
273.826
273.914
274.055
273.276
273.458
273.565
273.623
273.657
273.681
273.701
273.72
273.737
273.755
273.773
273.791
273.809
273.828
273.847
273.868
273.894
273.933
273.994
274.086
)
;

boundaryField
{
    leftWall
    {
        type            fixedValue;
        value           uniform 273.15;
    }
    rightWall
    {
        type            customNeumannDirichletCoupledBoundary;
        refValue        nonuniform List<scalar> 10(274.128 274.129 274.131 274.133 274.135 274.137 274.139 274.14 274.142 274.144);
        refGradient     uniform 0;
        valueFraction   uniform 1;
        source          uniform 0;
        value           nonuniform List<scalar> 10(274.128 274.129 274.131 274.133 274.135 274.137 274.139 274.14 274.142 274.144);
        kappaMethod     fluidThermo;
    }
    topWall
    {
        type            zeroGradient;
    }
    bottomWall
    {
        type            zeroGradient;
    }
    frontAndBackPlanes
    {
        type            empty;
    }
}


// ************************************************************************* //
