/*--------------------------------*- C++ -*----------------------------------*\
| =========                 |                                                 |
| \\      /  F ield         | OpenFOAM: The Open Source CFD Toolbox           |
|  \\    /   O peration     | Version:  2506                                  |
|   \\  /    A nd           | Website:  www.openfoam.com                      |
|    \\/     M anipulation  |                                                 |
\*---------------------------------------------------------------------------*/
FoamFile
{
    version     2.0;
    format      ascii;
    arch        "LSB;label=32;scalar=64";
    class       volVectorField;
    location    "31";
    object      U;
}
// * * * * * * * * * * * * * * * * * * * * * * * * * * * * * * * * * * * * * //

dimensions      [0 1 -1 0 0 0 0];

internalField   nonuniform List<vector> 
200
(
(-0.000242247 -9.44655e-05 0)
(-8.766e-05 -0.000240687 0)
(0.000654108 -0.000365989 0)
(0.00173962 -0.000500632 0)
(0.00299073 -0.000586511 0)
(0.00433437 -0.000614881 0)
(0.00568011 -0.000604742 0)
(0.00696723 -0.000580857 0)
(0.00817312 -0.000567167 0)
(0.00930748 -0.00058372 0)
(0.0104023 -0.000644958 0)
(0.0114996 -0.000758289 0)
(0.0126355 -0.000920481 0)
(0.0138171 -0.00110731 0)
(0.0149776 -0.00124965 0)
(0.0158843 -0.00117837 0)
(0.01602 -0.000524876 0)
(0.0144952 0.00131139 0)
(0.0103281 0.00455204 0)
(0.00309656 0.00651564 0)
(5.00305e-05 -0.000689006 0)
(0.000893161 -0.00209125 0)
(0.00252989 -0.00333433 0)
(0.00471114 -0.00426296 0)
(0.007176 -0.00477921 0)
(0.00971161 -0.00491898 0)
(0.0121597 -0.00478549 0)
(0.0144209 -0.00450272 0)
(0.0164487 -0.00418439 0)
(0.0182338 -0.00391513 0)
(0.0197833 -0.00373907 0)
(0.0210973 -0.00364933 0)
(0.0221424 -0.00357044 0)
(0.0228209 -0.00332239 0)
(0.0229313 -0.00255237 0)
(0.0221198 -0.000626584 0)
(0.0198217 0.00341767 0)
(0.0154072 0.0104095 0)
(0.00890362 0.0190289 0)
(0.00153541 0.0193674 0)
(0.000148208 -0.00189546 0)
(0.0015257 -0.00529816 0)
(0.00379994 -0.00797805 0)
(0.00661307 -0.00970696 0)
(0.00958424 -0.0104789 0)
(0.0124475 -0.0104589 0)
(0.0150427 -0.00989461 0)
(0.0172934 -0.00903718 0)
(0.0191812 -0.00808941 0)
(0.0207178 -0.00717839 0)
(0.0219173 -0.00634084 0)
(0.022769 -0.00550944 0)
(0.0232122 -0.00449051 0)
(0.0231122 -0.00292521 0)
(0.0222288 -0.000229687 0)
(0.0202358 0.00441115 0)
(0.0168314 0.0118469 0)
(0.0119002 0.0222443 0)
(0.00604515 0.032253 0)
(0.000793525 0.0275745 0)
(0.000205237 -0.00369284 0)
(0.00192303 -0.00954768 0)
(0.00452782 -0.0136209 0)
(0.00752011 -0.0158464 0)
(0.0104351 -0.0164417 0)
(0.0129995 -0.0158209 0)
(0.0150976 -0.0144542 0)
(0.0167214 -0.0127527 0)
(0.0179233 -0.0110073 0)
(0.0187752 -0.00936637 0)
(0.0193342 -0.00782903 0)
(0.0196155 -0.00623719 0)
(0.0195711 -0.00425901 0)
(0.0190748 -0.00136872 0)
(0.0178796 0.00315144 0)
(0.015786 0.0100855 0)
(0.0126046 0.0200634 0)
(0.00839764 0.0324884 0)
(0.00385297 0.0423031 0)
(0.000394427 0.0327128 0)
(0.000255703 -0.00582519 0)
(0.00208546 -0.014212 0)
(0.00460055 -0.0193656 0)
(0.00722491 -0.0215765 0)
(0.00948774 -0.0214531 0)
(0.011174 -0.0197854 0)
(0.0122647 -0.0173353 0)
(0.0128583 -0.0146905 0)
(0.0131014 -0.0122105 0)
(0.0131361 -0.0100287 0)
(0.0130647 -0.00806713 0)
(0.0129267 -0.00604164 0)
(0.0126842 -0.00345952 0)
(0.0122 0.000367385 0)
(0.0112789 0.00622256 0)
(0.00974715 0.0148456 0)
(0.00748825 0.02657 0)
(0.00462835 0.0400776 0)
(0.00177376 0.0490312 0)
(6.79773e-05 0.0354979 0)
(0.000271117 -0.00799243 0)
(0.00181527 -0.0184859 0)
(0.00361551 -0.0240784 0)
(0.00515912 -0.0256385 0)
(0.00609615 -0.0243036 0)
(0.00635306 -0.0213264 0)
(0.00605524 -0.0177806 0)
(0.00541828 -0.0144001 0)
(0.00466488 -0.0115574 0)
(0.00396983 -0.00930858 0)
(0.00343312 -0.00744247 0)
(0.00307396 -0.00550992 0)
(0.00283746 -0.00284322 0)
(0.00259191 0.00139192 0)
(0.00219925 0.00803221 0)
(0.00156302 0.0177009 0)
(0.000694624 0.0303908 0)
(-0.000199853 0.0441583 0)
(-0.000709888 0.0518381 0)
(-0.000286525 0.035845 0)
(0.000199077 -0.00958429 0)
(0.000808139 -0.0210276 0)
(0.0010442 -0.0261399 0)
(0.00067203 -0.0264782 0)
(-0.000371725 -0.0237263 0)
(-0.0019253 -0.0195783 0)
(-0.00371239 -0.0153639 0)
(-0.00548023 -0.0118452 0)
(-0.00703393 -0.0092778 0)
(-0.0082647 -0.00754064 0)
(-0.00914406 -0.00624431 0)
(-0.00969815 -0.00479289 0)
(-0.00997448 -0.00242352 0)
(-0.0100033 0.00171856 0)
(-0.00977033 0.0083978 0)
(-0.00919125 0.0180365 0)
(-0.00809768 0.0303114 0)
(-0.00628239 0.042992 0)
(-0.00375347 0.0492639 0)
(-0.000723053 0.0331901 0)
(-4.85727e-05 -0.00959555 0)
(-0.00120825 -0.0199861 0)
(-0.0034223 -0.0236005 0)
(-0.00637484 -0.0225352 0)
(-0.0096425 -0.0188813 0)
(-0.0128624 -0.0144625 0)
(-0.015778 -0.0105258 0)
(-0.0182556 -0.0076522 0)
(-0.0202636 -0.00590025 0)
(-0.0218349 -0.00499633 0)
(-0.023021 -0.00447188 0)
(-0.0238476 -0.00373325 0)
(-0.0242766 -0.00209706 0)
(-0.024157 0.00115906 0)
(-0.0232405 0.00666887 0)
(-0.0212407 0.0147386 0)
(-0.0178596 0.0249778 0)
(-0.0129833 0.0353864 0)
(-0.00710837 0.0403375 0)
(-0.00121718 0.0270061 0)
(-0.000470365 -0.00703485 0)
(-0.00381345 -0.0139593 0)
(-0.00864878 -0.0156314 0)
(-0.0139091 -0.0139382 0)
(-0.0187272 -0.0106761 0)
(-0.0226991 -0.00727703 0)
(-0.0257623 -0.00459247 0)
(-0.0280564 -0.00292168 0)
(-0.0298018 -0.00218661 0)
(-0.0312059 -0.00210681 0)
(-0.0323986 -0.00231015 0)
(-0.0333927 -0.0023806 0)
(-0.034059 -0.00186946 0)
(-0.0341067 -0.000298885 0)
(-0.0330593 0.00281365 0)
(-0.0304012 0.00777507 0)
(-0.025618 0.0143825 0)
(-0.0185582 0.0213533 0)
(-0.0100315 0.0250883 0)
(-0.00170022 0.0172882 0)
(-0.000827606 -0.00196432 0)
(-0.004349 -0.00348587 0)
(-0.00911747 -0.00355708 0)
(-0.013766 -0.00281158 0)
(-0.0174373 -0.00178965 0)
(-0.0199295 -0.000869515 0)
(-0.0214251 -0.000238101 0)
(-0.0222598 6.92993e-05 0)
(-0.0227736 0.000100967 0)
(-0.023232 -6.25461e-05 0)
(-0.0237953 -0.000333492 0)
(-0.0245061 -0.000623054 0)
(-0.0252773 -0.000834637 0)
(-0.0258694 -0.00084715 0)
(-0.0258818 -0.000486615 0)
(-0.0247434 0.000471589 0)
(-0.0217802 0.00213876 0)
(-0.0165502 0.0043243 0)
(-0.00955057 0.00608082 0)
(-0.00227294 0.00495314 0)
)
;

boundaryField
{
    leftWall
    {
        type            fixedValue;
        value           uniform (0 0 0);
    }
    rightWall
    {
        type            fixedValue;
        value           uniform (0 0 0);
    }
    topWall
    {
        type            fixedValue;
        value           uniform (0 0 0);
    }
    bottomWall
    {
        type            fixedValue;
        value           uniform (0 0 0);
    }
    frontAndBackPlanes
    {
        type            empty;
    }
}


// ************************************************************************* //
