/*--------------------------------*- C++ -*----------------------------------*\
| =========                 |                                                 |
| \\      /  F ield         | OpenFOAM: The Open Source CFD Toolbox           |
|  \\    /   O peration     | Version:  2506                                  |
|   \\  /    A nd           | Website:  www.openfoam.com                      |
|    \\/     M anipulation  |                                                 |
\*---------------------------------------------------------------------------*/
FoamFile
{
    version     2.0;
    format      ascii;
    arch        "LSB;label=32;scalar=64";
    class       surfaceScalarField;
    location    "49.6";
    object      phi;
}
// * * * * * * * * * * * * * * * * * * * * * * * * * * * * * * * * * * * * * //

dimensions      [1 0 -1 0 0 0 0];

oriented        oriented;

internalField   nonuniform List<scalar> 
370
(
1.29089e-05
-9.56287e-05
0.000196874
-0.000183926
0.000412755
-0.000215822
0.000626407
-0.000213578
0.000820501
-0.000194009
0.000993149
-0.000172559
0.00115217
-0.000158924
0.00131012
-0.000157854
0.0014813
-0.000171084
0.00168003
-0.000198624
0.00191924
-0.000239106
0.00220845
-0.000289091
0.00254926
-0.000340695
0.00292732
-0.000377939
0.0032984
-0.000370958
0.00356451
-0.000265988
0.00352765
3.69776e-05
0.00296487
0.000562908
0.00163596
0.00132903
0.00163602
0.000163491
-0.00025909
0.000516439
-0.000536786
0.000934718
-0.00063397
0.00134489
-0.000623588
0.00171607
-0.000565024
0.00204314
-0.000499451
0.00233513
-0.000450731
0.00260724
-0.00042978
0.00287555
-0.000439198
0.00315343
-0.000476309
0.0034485
-0.000533975
0.00375849
-0.00059887
0.00406502
-0.000647009
0.00432401
-0.00063672
0.00445324
-0.00049997
0.00432391
-0.000136444
0.00378453
0.000576555
0.00266179
0.00168585
0.00109698
0.00289403
0.00273311
0.000236593
-0.000495622
0.000687154
-0.000987175
0.00118983
-0.00113639
0.00165883
-0.00109229
0.0020628
-0.000968689
0.00240094
-0.000837266
0.00268606
-0.000735539
0.0029346
-0.000678004
0.00316111
-0.000665385
0.00337533
-0.000690205
0.00357995
-0.000738261
0.00376735
-0.000785935
0.00391433
-0.000793638
0.00397476
-0.00069681
0.00387378
-0.000398649
0.00351239
0.000225268
0.00280926
0.00127999
0.0017688
0.00272661
0.000630062
0.00403302
0.00336331
0.00026952
-0.000765045
0.000749246
-0.00146663
0.00124605
-0.00163282
0.00167359
-0.00151939
0.00201046
-0.0013051
0.00226666
-0.00109301
0.00246237
-0.000930799
0.00261704
-0.000832236
0.00274519
-0.000793084
0.00285534
-0.000799909
0.0029497
-0.000832163
0.00302242
-0.000858187
0.00305557
-0.000826316
0.00301344
-0.000654213
0.00283967
-0.000224429
0.0024673
0.000598065
0.00186116
0.00188654
0.00107476
0.00351338
0.000326861
0.00478124
0.00369033
0.000271783
-0.00103669
0.00070979
-0.00190428
0.00111569
-0.00203821
0.00141944
-0.00182258
0.00161962
-0.00150471
0.00174108
-0.00121392
0.00181139
-0.00100056
0.00185154
-0.000871853
0.00187477
-0.000815771
0.00188815
-0.000812737
0.00189394
-0.000837395
0.0018889
-0.00085256
0.00186119
-0.000798016
0.00178646
-0.000578888
0.00162625
-6.36606e-05
0.00133905
0.000885793
0.000918593
0.00230748
0.000441026
0.0039914
7.91547e-05
0.00514349
0.00376965
0.000230002
-0.00126653
0.000536224
-0.00221006
0.00075394
-0.00225534
0.000852957
-0.00192095
0.000860646
-0.00151176
0.000815508
-0.00116817
0.000746606
-0.000931054
0.000670824
-0.000795473
0.000596377
-0.000740715
0.000526652
-0.000742383
0.000461781
-0.000771867
0.00039781
-0.000787905
0.000325063
-0.000724566
0.000228547
-0.000481667
9.37617e-05
7.17966e-05
-7.11331e-05
0.00105132
-0.000227763
0.0024647
-0.000296653
0.00406081
-0.000197857
0.00504508
0.00357195
0.000116169
-0.00138251
0.000159733
-0.00225311
6.79403e-05
-0.00216288
-0.000118873
-0.00173345
-0.000345892
-0.00128408
-0.000574688
-0.00093873
-0.000787025
-0.000718086
-0.000977905
-0.000603955
-0.00114836
-0.0005696
-0.00130153
-0.00058853
-0.00144158
-0.000631109
-0.00157332
-0.000655438
-0.00169955
-0.000597579
-0.00181364
-0.000366829
-0.00188506
0.000143956
-0.00184871
0.00101566
-0.00162683
0.00224345
-0.00116352
0.00359804
-0.000508124
0.00439008
0.00306399
-0.000119484
-0.00126279
-0.000497564
-0.00187446
-0.00100711
-0.00165264
-0.00152453
-0.00121532
-0.00198585
-0.000822098
-0.00237556
-0.00054839
-0.00270165
-0.00039137
-0.00297996
-0.000325006
-0.00322639
-0.000322531
-0.00345368
-0.000360587
-0.00366949
-0.000414624
-0.00387258
-0.000451669
-0.00404532
-0.00042415
-0.00414327
-0.000268189
-0.00408766
8.90349e-05
-0.00377396
0.000702624
-0.00310966
0.00157974
-0.0020723
0.00256119
-0.000835909
0.00315405
0.00222823
-0.00048586
-0.000776668
-0.00138478
-0.00097492
-0.00228847
-0.000748222
-0.0030267
-0.000476389
-0.00357787
-0.000270294
-0.00397995
-0.000145729
-0.00428397
-8.67881e-05
-0.00453525
-7.31723e-05
-0.00476789
-8.93524e-05
-0.00500396
-0.000123979
-0.00525202
-0.000166022
-0.00550189
-0.000201267
-0.0057159
-0.00020959
-0.00582003
-0.000163517
-0.00570486
-2.55947e-05
-0.00523072
0.000229014
-0.0042767
0.00062621
-0.00282225
0.00110716
-0.00111669
0.00144881
0.00111166
-0.000776364
-0.00175061
-0.00249807
-0.00297375
-0.00324342
-0.00338859
-0.00347488
-0.00354759
-0.00363651
-0.00376008
-0.0039257
-0.00412657
-0.00433578
-0.00449893
-0.00452416
-0.00429479
-0.00366825
-0.00256079
-0.00111176
)
;

boundaryField
{
    leftWall
    {
        type            calculated;
        value           nonuniform List<scalar> 10(0 0 0 0 0 0 0 -2.1684e-19 0 4.33681e-19);
    }
    rightWall
    {
        type            calculated;
        value           uniform 0;
    }
    topWall
    {
        type            calculated;
        value           uniform 0;
    }
    bottomWall
    {
        type            calculated;
        value           uniform 0;
    }
    frontAndBackPlanes
    {
        type            empty;
    }
}


// ************************************************************************* //
