/*--------------------------------*- C++ -*----------------------------------*\
| =========                 |                                                 |
| \\      /  F ield         | OpenFOAM: The Open Source CFD Toolbox           |
|  \\    /   O peration     | Version:  2506                                  |
|   \\  /    A nd           | Website:  www.openfoam.com                      |
|    \\/     M anipulation  |                                                 |
\*---------------------------------------------------------------------------*/
FoamFile
{
    version     2.0;
    format      ascii;
    arch        "LSB;label=32;scalar=64";
    class       surfaceScalarField;
    location    "99.8";
    object      phi;
}
// * * * * * * * * * * * * * * * * * * * * * * * * * * * * * * * * * * * * * //

dimensions      [1 0 -1 0 0 0 0];

oriented        oriented;

internalField   nonuniform List<scalar> 
370
(
0.000248013
-0.000292739
0.000692313
-0.000444225
0.00108881
-0.000396387
0.00137329
-0.000284348
0.00154969
-0.000176241
0.00164981
-9.99575e-05
0.00171062
-6.06354e-05
0.00176383
-5.30308e-05
0.00183319
-6.91628e-05
0.00193519
-0.000101804
0.00208099
-0.000145596
0.00227749
-0.000196294
0.00252596
-0.000248253
0.00281557
-0.000289386
0.00310927
-0.000293478
0.003318
-0.000208496
0.0032613
5.69296e-05
0.00272278
0.000538754
0.00148713
0.00123586
0.00148724
0.000383627
-0.000676327
0.00104047
-0.00110096
0.00168096
-0.00103673
0.00218933
-0.000792541
0.00254979
-0.000536503
0.00279137
-0.000341346
0.0029563
-0.000225359
0.00308397
-0.000180491
0.00320436
-0.000189343
0.00333675
-0.000233981
0.00349026
-0.00029889
0.00366363
-0.000369438
0.00384194
-0.000426331
0.00398902
-0.000436238
0.0040353
-0.000339516
0.003869
-4.19573e-05
0.00335026
0.000575915
0.00233256
0.00155669
0.000947284
0.00262135
0.00243463
0.000391723
-0.001068
0.00103917
-0.00174827
0.00166535
-0.00166271
0.00216447
-0.00129144
0.00252412
-0.000895912
0.00277106
-0.000588039
0.00294129
-0.000395342
0.00306627
-0.000305224
0.00316824
-0.000291064
0.00325979
-0.000325284
0.00334453
-0.00038338
0.00341661
-0.00044126
0.00345764
-0.000467113
0.00343116
-0.000409497
0.00327783
-0.000185923
0.00291795
0.000318194
0.00229257
0.00120156
0.0014106
0.00243892
0.000481228
0.00355093
0.00291596
0.000352373
-0.00142031
0.000901007
-0.00229674
0.00139894
-0.00216042
0.0017709
-0.00166313
0.00202305
-0.00114778
0.00218745
-0.000752162
0.00229569
-0.000503298
0.00237001
-0.000379268
0.00242304
-0.000343817
0.00246028
-0.000362258
0.00248218
-0.000405002
0.00248379
-0.000442592
0.0024517
-0.00043475
0.0023593
-0.00031681
0.00216609
7.56668e-06
0.00182903
0.000655538
0.00133079
0.00170008
0.000724282
0.0030457
0.000189814
0.00408562
0.00310586
0.000286652
-0.0017069
0.000677695
-0.0026876
0.000980827
-0.0024633
0.00116708
-0.00184909
0.00126717
-0.00124758
0.00131807
-0.000802756
0.00134436
-0.000529299
0.00135745
-0.000392062
0.00136061
-0.000346698
0.00135407
-0.000355429
0.00133717
-0.000387818
0.00130728
-0.000412412
0.00125602
-0.000383201
0.00116583
-0.000226326
0.00101006
0.000163627
0.000772796
0.000893107
0.00046315
0.00201002
0.000153379
0.00335574
-2.43892e-05
0.0042636
0.00308156
0.000189884
-0.00189671
0.000359337
-0.00285686
0.000408793
-0.00251248
0.000371659
-0.00181166
0.000301142
-0.00117676
0.00023026
-0.000731576
0.000169996
-0.000468743
0.000119148
-0.000340925
7.34148e-05
-0.000300681
2.98349e-05
-0.000311566
-1.32597e-05
-0.000344441
-5.88187e-05
-0.000366569
-0.000113492
-0.00032824
-0.000186764
-0.000152759
-0.000282948
0.000260115
-0.000389369
0.000999835
-0.000463207
0.00208416
-0.000430532
0.00332334
-0.00023745
0.00407073
0.00284419
2.8096e-05
-0.00192472
-0.000113502
-0.00271504
-0.000381233
-0.00224448
-0.000672802
-0.00151979
-0.000926005
-0.000923263
-0.00112418
-0.000533109
-0.00127498
-0.000317665
-0.00139228
-0.000223344
-0.00148747
-0.000205214
-0.00156784
-0.000230928
-0.00163829
-0.000273717
-0.00170285
-0.00030173
-0.00176297
-0.000267835
-0.00181123
-0.000104214
-0.00181933
0.000268501
-0.00173856
0.000919362
-0.00150303
0.00184891
-0.00106032
0.00288089
-0.000456025
0.00346662
0.00238824
-0.000238105
-0.00168653
-0.000811444
-0.00214148
-0.00145267
-0.00160297
-0.00200254
-0.000969638
-0.0024172
-0.000508317
-0.00271221
-0.000237828
-0.00292155
-0.000108051
-0.00307547
-6.91621e-05
-0.0031966
-8.38184e-05
-0.00330054
-0.000126733
-0.00339541
-0.000178592
-0.00348117
-0.000215708
-0.0035447
-0.000204055
-0.00355191
-9.67417e-05
-0.00344371
0.000160555
-0.00314127
0.000617178
-0.00256838
0.00127626
-0.00170221
0.00201494
-0.00068275
0.00244732
0.00170556
-0.000651445
-0.00103498
-0.00172769
-0.00106501
-0.00267228
-0.000658102
-0.00333242
-0.000309215
-0.00374208
-9.83838e-05
-0.00397681
-2.83405e-06
-0.00412068
3.60678e-05
-0.0042186
2.90044e-05
-0.00430165
-5.31409e-07
-0.00439305
-3.511e-05
-0.0044973
-7.41127e-05
-0.00460702
-0.000105777
-0.00469465
-0.000116214
-0.00470554
-8.56538e-05
-0.00455936
1.45834e-05
-0.00414499
0.000203001
-0.0033685
0.000499955
-0.00221152
0.000858131
-0.000870316
0.00110625
0.0008353
-0.00103487
-0.00209965
-0.00275747
-0.00306641
-0.00316453
-0.00316712
-0.00313081
-0.00310158
-0.0031019
-0.00313681
-0.00321073
-0.00331633
-0.00343238
-0.00351787
-0.00350314
-0.0033
-0.00279992
-0.00194167
-0.000835338
)
;

boundaryField
{
    leftWall
    {
        type            calculated;
        value           nonuniform List<scalar> 10(0 0 0 1.0842e-19 0 0 0 -4.33681e-19 0 0);
    }
    rightWall
    {
        type            calculated;
        value           nonuniform List<scalar> 10(0 0 0 4.33681e-19 4.33681e-19 0 0 4.33681e-19 0 0);
    }
    topWall
    {
        type            calculated;
        value           uniform 0;
    }
    bottomWall
    {
        type            calculated;
        value           uniform 0;
    }
    frontAndBackPlanes
    {
        type            empty;
    }
}


// ************************************************************************* //
