/*--------------------------------*- C++ -*----------------------------------*\
| =========                 |                                                 |
| \\      /  F ield         | OpenFOAM: The Open Source CFD Toolbox           |
|  \\    /   O peration     | Version:  2506                                  |
|   \\  /    A nd           | Website:  www.openfoam.com                      |
|    \\/     M anipulation  |                                                 |
\*---------------------------------------------------------------------------*/
FoamFile
{
    version     2.0;
    format      ascii;
    arch        "LSB;label=32;scalar=64";
    class       volVectorField;
    location    "123.2";
    object      U;
}
// * * * * * * * * * * * * * * * * * * * * * * * * * * * * * * * * * * * * * //

dimensions      [0 1 -1 0 0 0 0];

internalField   nonuniform List<vector> 
200
(
(0.000498481 -0.00124939 0)
(0.00250986 -0.00159068 0)
(0.00464157 -0.00116992 0)
(0.00633381 -0.000629787 0)
(0.00737147 -0.000214544 0)
(0.00789252 2.33892e-05 0)
(0.00810554 0.000105935 0)
(0.00819609 7.66571e-05 0)
(0.00830195 -2.38872e-05 0)
(0.00851643 -0.000168313 0)
(0.00889909 -0.000344215 0)
(0.00948622 -0.000549177 0)
(0.0102954 -0.000780481 0)
(0.0113142 -0.00101759 0)
(0.0124584 -0.00119153 0)
(0.0134761 -0.00113086 0)
(0.0138114 -0.000482943 0)
(0.0125889 0.00126513 0)
(0.00894221 0.00417116 0)
(0.00267755 0.00568794 0)
(0.000539069 -0.00493737 0)
(0.00344332 -0.00763552 0)
(0.0066098 -0.00681966 0)
(0.00932746 -0.00484731 0)
(0.0112624 -0.0029183 0)
(0.0124834 -0.00151759 0)
(0.013205 -0.000737106 0)
(0.0136487 -0.000488717 0)
(0.0139897 -0.000629106 0)
(0.0143455 -0.00102345 0)
(0.0147804 -0.00156697 0)
(0.0153129 -0.00217484 0)
(0.0159124 -0.00274481 0)
(0.0164801 -0.00309171 0)
(0.0168128 -0.00285346 0)
(0.0165517 -0.00138759 0)
(0.0151184 0.00222743 0)
(0.0118939 0.00863526 0)
(0.00687012 0.0163144 0)
(0.00116165 0.0163501 0)
(0.000511026 -0.00869664 0)
(0.00325983 -0.0139157 0)
(0.00618758 -0.0128917 0)
(0.00870747 -0.00963742 0)
(0.0105364 -0.00628568 0)
(0.0117392 -0.00372499 0)
(0.0124974 -0.00215595 0)
(0.0129866 -0.00145697 0)
(0.0133363 -0.00139648 0)
(0.0136255 -0.00174015 0)
(0.0138897 -0.00228674 0)
(0.0141249 -0.00285263 0)
(0.0142835 -0.00321422 0)
(0.0142572 -0.00301595 0)
(0.0138531 -0.00166694 0)
(0.0127614 0.00169536 0)
(0.0107043 0.00791427 0)
(0.00754271 0.017034 0)
(0.00370871 0.0257973 0)
(0.000421001 0.0219918 0)
(0.000448656 -0.0120792 0)
(0.00272581 -0.0193064 0)
(0.00496905 -0.017888 0)
(0.00677392 -0.0134357 0)
(0.00799734 -0.00888309 0)
(0.00875676 -0.00540715 0)
(0.00922113 -0.00323863 0)
(0.00951869 -0.00218446 0)
(0.00972258 -0.00192133 0)
(0.00986518 -0.00213542 0)
(0.00995381 -0.00256116 0)
(0.00997688 -0.00295085 0)
(0.00989724 -0.00299508 0)
(0.00963569 -0.00221703 0)
(0.00904857 0.000107477 0)
(0.00796204 0.00486292 0)
(0.00625359 0.012724 0)
(0.00396212 0.0231301 0)
(0.00155805 0.0315604 0)
(5.33949e-05 0.0244838 0)
(0.000370978 -0.0148203 0)
(0.00200717 -0.0232382 0)
(0.00333456 -0.0211391 0)
(0.00419737 -0.0156062 0)
(0.00463584 -0.0101806 0)
(0.00482441 -0.00616014 0)
(0.00490746 -0.00369799 0)
(0.00495544 -0.00248485 0)
(0.00498451 -0.00211238 0)
(0.00498872 -0.00222367 0)
(0.00495939 -0.00253341 0)
(0.00488683 -0.00276955 0)
(0.00474861 -0.00257033 0)
(0.00449282 -0.00137491 0)
(0.0040192 0.001617 0)
(0.0032511 0.00724844 0)
(0.00216554 0.0159873 0)
(0.000921274 0.0267337 0)
(-7.58011e-05 0.0342299 0)
(-0.000177497 0.0249508 0)
(0.000275012 -0.0167609 0)
(0.00107831 -0.025374 0)
(0.00127716 -0.0223342 0)
(0.00105676 -0.0159536 0)
(0.000654981 -0.0100859 0)
(0.000263326 -0.00594217 0)
(-3.83071e-05 -0.0035024 0)
(-0.000253904 -0.00233513 0)
(-0.000417616 -0.00197947 0)
(-0.000556679 -0.00207749 0)
(-0.000686187 -0.00235513 0)
(-0.000817681 -0.00253196 0)
(-0.000971247 -0.00220726 0)
(-0.00117929 -0.000767946 0)
(-0.00147932 0.00259783 0)
(-0.0018401 0.00862807 0)
(-0.00214361 0.0175101 0)
(-0.00214615 0.0277393 0)
(-0.00159836 0.0339653 0)
(-0.00036413 0.0237618 0)
(0.000146411 -0.0175496 0)
(-0.000228844 -0.0252063 0)
(-0.00146134 -0.0210606 0)
(-0.00289532 -0.0142676 0)
(-0.00416552 -0.00854449 0)
(-0.00513841 -0.0047526 0)
(-0.00583488 -0.00264186 0)
(-0.00633199 -0.0017025 0)
(-0.00670182 -0.00148632 0)
(-0.00699221 -0.00166962 0)
(-0.00723228 -0.00199731 0)
(-0.0074426 -0.00218615 0)
(-0.0076364 -0.00182994 0)
(-0.00780181 -0.000347707 0)
(-0.00786295 0.00296077 0)
(-0.00765025 0.00866818 0)
(-0.00691923 0.0167625 0)
(-0.00543 0.0256901 0)
(-0.00320721 0.0306204 0)
(-0.000581589 0.0209041 0)
(-0.000196479 -0.0165276 0)
(-0.00232957 -0.0218522 0)
(-0.00522301 -0.0168439 0)
(-0.00791435 -0.0104155 0)
(-0.00996722 -0.00554201 0)
(-0.0113847 -0.00258754 0)
(-0.0123279 -0.0011153 0)
(-0.0129631 -0.000606776 0)
(-0.0134168 -0.000665443 0)
(-0.0137744 -0.00101917 0)
(-0.0140876 -0.00145212 0)
(-0.0143761 -0.00172166 0)
(-0.0146168 -0.00149141 0)
(-0.0147172 -0.000308211 0)
(-0.0144712 0.00234713 0)
(-0.0135926 0.00689943 0)
(-0.011744 0.0132863 0)
(-0.00872531 0.0202362 0)
(-0.00482989 0.0239763 0)
(-0.000811746 0.0163026 0)
(-0.000841123 -0.0125757 0)
(-0.00533366 -0.014455 0)
(-0.00982045 -0.0095504 0)
(-0.0132245 -0.00471315 0)
(-0.0153195 -0.00159652 0)
(-0.0164552 -3.74021e-05 0)
(-0.017038 0.000498042 0)
(-0.0173545 0.000455641 0)
(-0.0175792 0.000116376 0)
(-0.0178157 -0.00035292 0)
(-0.0181148 -0.000829528 0)
(-0.018475 -0.00117794 0)
(-0.0188273 -0.00120871 0)
(-0.0190123 -0.000661136 0)
(-0.0187442 0.000783218 0)
(-0.0176118 0.00343421 0)
(-0.0151773 0.00731494 0)
(-0.011207 0.0117056 0)
(-0.00613071 0.014334 0)
(-0.00103313 0.0100689 0)
(-0.00201684 -0.00430387 0)
(-0.00713415 -0.00374148 0)
(-0.0107733 -0.00171253 0)
(-0.0126701 -0.000290191 0)
(-0.0132779 0.000376081 0)
(-0.0132294 0.000561857 0)
(-0.012944 0.000513053 0)
(-0.0126547 0.000372168 0)
(-0.0124793 0.000201559 0)
(-0.0124681 2.31474e-05 0)
(-0.0126345 -0.000152799 0)
(-0.0129621 -0.000312955 0)
(-0.0133935 -0.000431159 0)
(-0.0138043 -0.000458249 0)
(-0.013973 -0.000310415 0)
(-0.0135697 0.000143665 0)
(-0.0121586 0.00101112 0)
(-0.00939147 0.00223791 0)
(-0.00548141 0.00331007 0)
(-0.00129864 0.0027882 0)
)
;

boundaryField
{
    leftWall
    {
        type            fixedValue;
        value           uniform (0 0 0);
    }
    rightWall
    {
        type            fixedValue;
        value           uniform (0 0 0);
    }
    topWall
    {
        type            fixedValue;
        value           uniform (0 0 0);
    }
    bottomWall
    {
        type            fixedValue;
        value           uniform (0 0 0);
    }
    frontAndBackPlanes
    {
        type            empty;
    }
}


// ************************************************************************* //
