/*--------------------------------*- C++ -*----------------------------------*\
| =========                 |                                                 |
| \\      /  F ield         | OpenFOAM: The Open Source CFD Toolbox           |
|  \\    /   O peration     | Version:  2506                                  |
|   \\  /    A nd           | Website:  www.openfoam.com                      |
|    \\/     M anipulation  |                                                 |
\*---------------------------------------------------------------------------*/
FoamFile
{
    version     2.0;
    format      ascii;
    arch        "LSB;label=32;scalar=64";
    class       surfaceScalarField;
    location    "117";
    object      phi;
}
// * * * * * * * * * * * * * * * * * * * * * * * * * * * * * * * * * * * * * //

dimensions      [1 0 -1 0 0 0 0];

oriented        oriented;

internalField   nonuniform List<scalar> 
370
(
0.000312387
-0.000348461
0.000828164
-0.000515714
0.00127634
-0.000448083
0.00158544
-0.00030899
0.00176414
-0.000178571
0.00185193
-8.76501e-05
0.00189257
-4.04948e-05
0.00192238
-2.96516e-05
0.00196772
-4.51643e-05
0.00204625
-7.83602e-05
0.0021691
-0.000122665
0.00234252
-0.000173236
0.00256706
-0.000224346
0.00283147
-0.000264217
0.00309901
-0.000267336
0.00328182
-0.000182596
0.00320712
7.49104e-05
0.00266181
0.000545518
0.00144439
0.0012176
0.00144449
0.000435566
-0.000783995
0.00116783
-0.00124789
0.00186751
-0.00114765
0.00240837
-0.000849695
0.00277689
-0.000546937
0.00300877
-0.000319368
0.00315302
-0.000184575
0.00325446
-0.000130911
0.00334648
-0.000137011
0.00344996
-0.000181653
0.00357453
-0.000247053
0.00371887
-0.000317379
0.00386786
-0.000373144
0.00398561
-0.000381768
0.00400392
-0.000285442
0.00381721
4.31991e-06
0.00328453
0.00060781
0.00227433
0.00155593
0.000918544
0.00257357
0.00236313
0.000422448
-0.0012064
0.00111136
-0.00193668
0.00176663
-0.00180276
0.00227772
-0.00136059
0.00263517
-0.00090419
0.00287061
-0.000554608
0.00302428
-0.000338042
0.00313052
-0.000236949
0.00321316
-0.000219447
0.00328545
-0.000253743
0.00335111
-0.000312504
0.00340415
-0.000370206
0.00342615
-0.000394941
0.00338115
-0.000336556
0.00321147
-0.000115538
0.00284042
0.000375593
0.00221868
0.00122977
0.00135615
0.00241868
0.000458272
0.00347162
0.00282148
0.000363818
-0.00157017
0.000919797
-0.00249253
0.00141388
-0.00229665
0.00177357
-0.00172007
0.00201007
-0.00114046
0.00215925
-0.000703559
0.00225451
-0.000433074
0.00231839
-0.000300599
0.00236298
-0.000263815
0.00239305
-0.000283591
0.00240835
-0.000327587
0.00240344
-0.000365068
0.0023647
-0.000355981
0.00226623
-0.00023786
0.00206925
8.16752e-05
0.00173627
0.000708805
0.0012525
0.00171377
0.000672341
0.00299905
0.00017045
0.00397369
0.00299201
0.000282423
-0.00185254
0.000653428
-0.00286338
0.000927684
-0.0025707
0.00108533
-0.00187749
0.00116285
-0.00121775
0.00119914
-0.000739605
0.00121802
-0.000451726
0.00122895
-0.000311294
0.0012332
-0.000267835
0.00122944
-0.000279606
0.00121603
-0.000313948
0.00118966
-0.000338472
0.00114176
-0.000307852
0.00105536
-0.000151227
0.000906903
0.000230369
0.000681451
0.000934497
0.000391899
0.00200356
0.000110052
0.00328112
-3.95887e-05
0.00412351
0.00295249
0.000175375
-0.00202785
0.000306071
-0.00299392
0.000313617
-0.00257803
0.000243616
-0.00180725
0.000153185
-0.00112708
7.38989e-05
-0.000660083
1.34056e-05
-0.000391002
-3.27006e-05
-0.000264961
-7.09539e-05
-0.000229357
-0.000105778
-0.000244558
-0.000139676
-0.000279825
-0.000175924
-0.000302
-0.000220893
-0.000262655
-0.000283142
-8.87456e-05
-0.000365164
0.00031263
-0.000453814
0.00102339
-0.000506406
0.00205639
-0.000451469
0.0032264
-0.000241064
0.00391327
0.00271149
3.83304e-06
-0.00203162
-0.000180104
-0.00280981
-0.000488224
-0.0022697
-0.000805965
-0.00148928
-0.00107008
-0.000862734
-0.00126785
-0.000462092
-0.00141136
-0.000247268
-0.0015177
-0.000158399
-0.00160029
-0.000146552
-0.00166749
-0.000177137
-0.00172466
-0.000222443
-0.00177558
-0.000250864
-0.00182089
-0.000217125
-0.00185236
-5.70536e-05
-0.00184156
0.000302058
-0.00174267
0.00092473
-0.0014934
0.00180735
-0.00104519
0.0027784
-0.000445899
0.00331412
0.00226565
-0.000263172
-0.00176838
-0.000877273
-0.00219554
-0.00154777
-0.00159898
-0.002109
-0.000927823
-0.00252045
-0.000451064
-0.0028036
-0.000178723
-0.00299608
-5.45746e-05
-0.00313114
-2.31391e-05
-0.00323323
-4.42576e-05
-0.00331831
-9.18496e-05
-0.0033947
-0.00014585
-0.00346193
-0.000183438
-0.00350647
-0.000172386
-0.00349459
-6.87355e-05
-0.0033701
0.000177773
-0.00305863
0.000613452
-0.00248906
0.00123798
-0.00164225
0.00193175
-0.000655578
0.00232758
0.00161013
-0.000683897
-0.0010844
-0.00179532
-0.00108394
-0.00274976
-0.000644326
-0.00339737
-0.000279995
-0.00378057
-6.76546e-05
-0.00399041
3.13273e-05
-0.00410589
6.11071e-05
-0.0041776
4.87626e-05
-0.00423844
1.67667e-05
-0.00430798
-2.21336e-05
-0.0043918
-6.18554e-05
-0.00448161
-9.34642e-05
-0.0045501
-0.000103731
-0.00454452
-7.41564e-05
-0.0043879
2.13114e-05
-0.0039758
0.000201498
-0.00322024
0.000482567
-0.0021069
0.000818542
-0.000826013
0.0010468
0.000784155
-0.00108432
-0.00216807
-0.00281219
-0.00309197
-0.00315942
-0.0031279
-0.00306661
-0.00301767
-0.00300074
-0.00302272
-0.00308442
-0.00317775
-0.00328135
-0.00335538
-0.00333395
-0.00313235
-0.00264968
-0.00183105
-0.000784184
)
;

boundaryField
{
    leftWall
    {
        type            calculated;
        value           nonuniform List<scalar> 10(0 0 0 1.0842e-19 0 0 0 0 0 0);
    }
    rightWall
    {
        type            calculated;
        value           nonuniform List<scalar> 10(0 -2.1684e-19 0 -4.33681e-19 0 0 0 0 4.33681e-19 0);
    }
    topWall
    {
        type            calculated;
        value           uniform 0;
    }
    bottomWall
    {
        type            calculated;
        value           uniform 0;
    }
    frontAndBackPlanes
    {
        type            empty;
    }
}


// ************************************************************************* //
