/*--------------------------------*- C++ -*----------------------------------*\
| =========                 |                                                 |
| \\      /  F ield         | OpenFOAM: The Open Source CFD Toolbox           |
|  \\    /   O peration     | Version:  2506                                  |
|   \\  /    A nd           | Website:  www.openfoam.com                      |
|    \\/     M anipulation  |                                                 |
\*---------------------------------------------------------------------------*/
FoamFile
{
    version     2.0;
    format      ascii;
    arch        "LSB;label=32;scalar=64";
    class       volScalarField;
    location    "117";
    object      T;
}
// * * * * * * * * * * * * * * * * * * * * * * * * * * * * * * * * * * * * * //

dimensions      [0 0 0 1 0 0 0];

internalField   nonuniform List<scalar> 
200
(
273.165
273.192
273.211
273.224
273.233
273.239
273.244
273.248
273.251
273.254
273.258
273.261
273.265
273.27
273.275
273.285
273.309
273.37
273.523
273.857
273.175
273.219
273.249
273.268
273.278
273.283
273.285
273.287
273.288
273.291
273.293
273.296
273.299
273.302
273.304
273.31
273.33
273.39
273.548
273.884
273.188
273.256
273.303
273.331
273.344
273.349
273.35
273.35
273.349
273.349
273.35
273.35
273.351
273.35
273.349
273.352
273.369
273.43
273.592
273.916
273.202
273.295
273.36
273.397
273.414
273.419
273.418
273.416
273.413
273.411
273.409
273.407
273.404
273.399
273.394
273.393
273.41
273.476
273.641
273.946
273.216
273.335
273.416
273.46
273.479
273.483
273.481
273.476
273.472
273.468
273.465
273.461
273.455
273.446
273.438
273.436
273.456
273.527
273.694
273.973
273.231
273.375
273.471
273.521
273.539
273.541
273.537
273.532
273.528
273.525
273.522
273.517
273.509
273.499
273.491
273.492
273.519
273.594
273.749
273.995
273.247
273.419
273.526
273.576
273.593
273.596
273.594
273.592
273.591
273.591
273.59
273.587
273.581
273.574
273.57
273.576
273.604
273.674
273.808
274.018
273.269
273.463
273.576
273.628
273.648
273.656
273.66
273.665
273.67
273.674
273.677
273.679
273.678
273.677
273.677
273.686
273.711
273.768
273.875
274.042
273.291
273.504
273.621
273.677
273.704
273.72
273.732
273.743
273.752
273.762
273.771
273.779
273.787
273.793
273.8
273.811
273.832
273.875
273.95
274.071
273.307
273.525
273.643
273.702
273.733
273.753
273.769
273.784
273.798
273.813
273.827
273.842
273.857
273.873
273.89
273.908
273.932
273.966
274.019
274.097
)
;

boundaryField
{
    leftWall
    {
        type            fixedValue;
        value           uniform 273.15;
    }
    rightWall
    {
        type            customNeumannDirichletCoupledBoundary;
        refValue        nonuniform List<scalar> 10(274.13 274.131 274.133 274.135 274.137 274.138 274.14 274.142 274.143 274.145);
        refGradient     uniform 0;
        valueFraction   uniform 1;
        source          uniform 0;
        value           nonuniform List<scalar> 10(274.13 274.131 274.133 274.135 274.137 274.138 274.14 274.142 274.143 274.145);
        kappaMethod     fluidThermo;
    }
    topWall
    {
        type            zeroGradient;
    }
    bottomWall
    {
        type            zeroGradient;
    }
    frontAndBackPlanes
    {
        type            empty;
    }
}


// ************************************************************************* //
