/*--------------------------------*- C++ -*----------------------------------*\
| =========                 |                                                 |
| \\      /  F ield         | OpenFOAM: The Open Source CFD Toolbox           |
|  \\    /   O peration     | Version:  2506                                  |
|   \\  /    A nd           | Website:  www.openfoam.com                      |
|    \\/     M anipulation  |                                                 |
\*---------------------------------------------------------------------------*/
FoamFile
{
    version     2.0;
    format      ascii;
    arch        "LSB;label=32;scalar=64";
    class       surfaceScalarField;
    location    "33.6";
    object      phi;
}
// * * * * * * * * * * * * * * * * * * * * * * * * * * * * * * * * * * * * * //

dimensions      [1 0 -1 0 0 0 0];

oriented        oriented;

internalField   nonuniform List<scalar> 
370
(
-5.00975e-05
-5.12468e-05
9.02207e-05
-0.000140313
0.000307724
-0.000217493
0.00058047
-0.000272731
0.000879476
-0.000298989
0.00118091
-0.000301417
0.00147025
-0.00028932
0.00174235
-0.000272082
0.00199984
-0.000257464
0.00225068
-0.000250823
0.00250545
-0.000254753
0.00277405
-0.000268594
0.00306071
-0.000286643
0.0033567
-0.000295979
0.00362714
-0.000270429
0.00378468
-0.000157517
0.0036632
0.000121497
0.00303295
0.000630291
0.00166288
0.00137012
0.00166291
0.000111604
-0.000162843
0.000431298
-0.000459983
0.000898468
-0.00068462
0.00144611
-0.000820313
0.00201863
-0.000871431
0.00257545
-0.000858158
0.00309234
-0.000806112
0.00355917
-0.000738821
0.00397564
-0.000673846
0.00434615
-0.000621251
0.00467441
-0.000582928
0.00495745
-0.000551554
0.00517914
-0.000508266
0.00530143
-0.000418206
0.00525404
-0.000222986
0.00492865
0.000167928
0.00418424
0.000865975
0.00288619
0.00192842
0.00117848
0.00307793
0.00284146
0.000197092
-0.000359915
0.000661879
-0.000924705
0.00128037
-0.001303
0.00195349
-0.00149327
0.00261005
-0.00152779
0.0032077
-0.00145558
0.00372785
-0.00132602
0.0041679
-0.00117864
0.00453348
-0.0010392
0.00483153
-0.000919088
0.00506425
-0.000815448
0.00522327
-0.000710383
0.00528383
-0.000568653
0.00519958
-0.000333812
0.00490081
7.59178e-05
0.00430702
0.000761836
0.00335962
0.00181349
0.00208487
0.00320332
0.000744863
0.0044181
0.00358642
0.000249361
-0.000609235
0.000795091
-0.0014703
0.00146604
-0.00197369
0.00213678
-0.00216365
0.00273183
-0.00212241
0.00321923
-0.00194253
0.0035973
-0.00170363
0.00388061
-0.00146151
0.00408881
-0.00124698
0.00423856
-0.00106845
0.00433764
-0.000914174
0.00438009
-0.000752505
0.00434196
-0.000530228
0.00418003
-0.000171623
0.00383534
0.000420818
0.00325572
0.00134165
0.0024203
0.0026491
0.00140028
0.00422357
0.000443713
0.00537489
0.00403026
0.000273528
-0.000882685
0.000816422
-0.00201293
0.00141942
-0.00257622
0.0019506
-0.00269419
0.00234831
-0.00251939
0.00260532
-0.00219879
0.00274629
-0.00184389
0.00280767
-0.00152223
0.00282435
-0.00126307
0.002822
-0.00106556
0.00281278
-0.000904454
0.00279244
-0.000731719
0.00273835
-0.000475726
0.00261121
-4.41422e-05
0.002359
0.000673323
0.00194494
0.00175598
0.00136878
0.00322552
0.000710338
0.0048823
0.00017327
0.00591224
0.00420367
0.000244849
-0.0011274
0.000658744
-0.00242638
0.00103573
-0.00295243
0.00127318
-0.00293063
0.00134507
-0.00259019
0.00128338
-0.00213606
0.00114125
-0.00170083
0.000971423
-0.0013516
0.000814052
-0.00110499
0.000692528
-0.000943399
0.000613391
-0.000824729
0.000567691
-0.000685462
0.000533034
-0.000440552
0.000475689
1.36331e-05
0.000369593
0.000779806
0.000202472
0.00192346
3.28539e-06
0.00342507
-0.000149008
0.00503498
-0.000145318
0.00590885
0.00405848
0.000124267
-0.00125146
0.00022887
-0.00253029
0.000186146
-0.00290856
-2.65278e-05
-0.00271654
-0.00036683
-0.00224847
-0.00077059
-0.00173106
-0.00117439
-0.00129601
-0.00153337
-0.000991782
-0.00182417
-0.000813446
-0.00204089
-0.00072598
-0.00218874
-0.00067617
-0.00227777
-0.000595716
-0.00231665
-0.000400972
-0.00231212
9.734e-06
-0.00223612
0.000704381
-0.00206393
0.0017518
-0.00174291
0.00310453
-0.00121571
0.00450822
-0.000525348
0.00521881
0.00353325
-0.000132491
-0.00111865
-0.000545679
-0.0021161
-0.00117081
-0.00228188
-0.00190259
-0.00198301
-0.00263871
-0.00151073
-0.00330938
-0.00105906
-0.00388216
-0.000722163
-0.00435211
-0.000520925
-0.00472987
-0.000434859
-0.00503043
-0.000424592
-0.00526382
-0.000441944
-0.00542699
-0.000431691
-0.00549665
-0.000330448
-0.00542085
-6.52053e-05
-0.00513632
0.00042059
-0.00456467
0.00118081
-0.00364269
0.00218312
-0.00236873
0.00323472
-0.000938448
0.00378885
0.00259493
-0.000489873
-0.000628333
-0.0015114
-0.00109329
-0.0026986
-0.00109279
-0.00381419
-0.000865399
-0.0047398
-0.000583294
-0.00545238
-0.00034499
-0.00598485
-0.000188493
-0.00639157
-0.00011321
-0.00672496
-0.000100591
-0.00702103
-0.0001277
-0.00729162
-0.000170552
-0.00751945
-0.000203073
-0.00765239
-0.000196736
-0.00759913
-0.000117723
-0.00725071
7.28946e-05
-0.00646924
0.000399972
-0.00515887
0.000873301
-0.00333313
0.00140942
-0.00129568
0.00175171
0.00129937
-0.000627829
-0.00171966
-0.00281035
-0.00367344
-0.00425457
-0.00459772
-0.00478471
-0.00489671
-0.00499631
-0.00512319
-0.00529303
-0.00549548
-0.00569163
-0.0058088
-0.00573537
-0.00533492
-0.00446119
-0.00305143
-0.00129948
)
;

boundaryField
{
    leftWall
    {
        type            calculated;
        value           uniform 0;
    }
    rightWall
    {
        type            calculated;
        value           nonuniform List<scalar> 10(0 0 4.33681e-19 0 0 0 8.67362e-19 0 0 0);
    }
    topWall
    {
        type            calculated;
        value           uniform 0;
    }
    bottomWall
    {
        type            calculated;
        value           uniform 0;
    }
    frontAndBackPlanes
    {
        type            empty;
    }
}


// ************************************************************************* //
