/*--------------------------------*- C++ -*----------------------------------*\
| =========                 |                                                 |
| \\      /  F ield         | OpenFOAM: The Open Source CFD Toolbox           |
|  \\    /   O peration     | Version:  2506                                  |
|   \\  /    A nd           | Website:  www.openfoam.com                      |
|    \\/     M anipulation  |                                                 |
\*---------------------------------------------------------------------------*/
FoamFile
{
    version     2.0;
    format      ascii;
    arch        "LSB;label=32;scalar=64";
    class       surfaceScalarField;
    location    "104.2";
    object      phi;
}
// * * * * * * * * * * * * * * * * * * * * * * * * * * * * * * * * * * * * * //

dimensions      [1 0 -1 0 0 0 0];

oriented        oriented;

internalField   nonuniform List<scalar> 
370
(
0.000265626
-0.000307965
0.000729453
-0.000463755
0.00113998
-0.00041042
0.00143099
-0.000290885
0.00160775
-0.000176614
0.00170423
-9.63135e-05
0.00175927
-5.48702e-05
0.00180588
-4.64358e-05
0.00186854
-6.24745e-05
0.00196406
-9.53261e-05
0.00210356
-0.000139302
0.00229376
-0.000189997
0.00253573
-0.000241758
0.00281855
-0.000282603
0.00310529
-0.00028652
0.00330726
-0.000201736
0.00324604
6.14432e-05
0.00270604
0.000540224
0.00147556
0.00123069
0.00147566
0.000397966
-0.000705893
0.0010756
-0.00114129
0.00173235
-0.00106703
0.00224953
-0.000807898
0.002612
-0.000538898
0.00285066
-0.000334787
0.00300964
-0.000213658
0.00312985
-0.000166447
0.00324222
-0.000174639
0.00336647
-0.00021937
0.00351187
-0.000284493
0.00367715
-0.000355053
0.00384734
-0.00041173
0.0039864
-0.000421437
0.00402517
-0.000325066
0.0038533
-2.96335e-05
0.00333117
0.000583817
0.00231598
0.00155565
0.000939173
0.0026077
0.00241494
0.000400318
-0.00110616
0.00105937
-0.00180021
0.00169371
-0.00170118
0.00219618
-0.00131016
0.00255519
-0.000897679
0.00279886
-0.000578217
0.00296436
-0.000378929
0.00308399
-0.000285834
0.00318041
-0.000270832
0.00326644
-0.00030516
0.0033457
-0.000363519
0.00341232
-0.000421431
0.00344792
-0.000447089
0.00341619
-0.000389454
0.00325825
-0.000166876
0.00289557
0.000333301
0.00227135
0.00120829
0.00139501
0.00243223
0.000474646
0.00352827
0.00288968
0.000355697
-0.0014618
0.000906601
-0.00235096
0.00140367
-0.00219803
0.00177236
-0.0016786
0.00202024
-0.00114529
0.00218042
-0.000738133
0.00228501
-0.000483249
0.00235634
-0.000356905
0.00240691
-0.000321144
0.00244205
-0.000340034
0.002462
-0.000383209
0.00246167
-0.000420849
0.00242761
-0.000412763
0.00233338
-0.000294961
0.00213873
2.80523e-05
0.00180274
0.000669565
0.00130852
0.00170277
0.000709456
0.00303155
0.000184247
0.00405368
0.00307402
0.000285642
-0.00174738
0.000671364
-0.00273651
0.000966659
-0.00249308
0.00114507
-0.00185673
0.00123895
-0.00123888
0.0012858
-0.000784704
0.00131003
-0.000507204
0.00132249
-0.000369084
0.0013259
-0.000324286
0.00132007
-0.000333932
0.0013041
-0.000366976
0.00127513
-0.000391603
0.0012247
-0.000362061
0.00113537
-0.000205357
0.000981625
0.000182073
0.000747393
0.00090408
0.000443178
0.00200727
0.000141108
0.00333388
-2.87919e-05
0.00422379
0.00304531
0.000185933
-0.00193324
0.000344821
-0.00289521
0.000382713
-0.00253072
0.000336444
-0.00181018
0.00026038
-0.00116254
0.000187177
-0.00071122
0.000126895
-0.000446647
7.74314e-05
-0.00031935
3.38327e-05
-0.000280419
-7.27562e-06
-0.000292557
-4.78081e-05
-0.000326178
-9.07825e-05
-0.000348362
-0.000142779
-0.000309794
-0.000213011
-0.000134848
-0.000305299
0.000274646
-0.000406907
0.00100598
-0.000475024
0.00207567
-0.000436319
0.00329543
-0.000238465
0.00402613
0.00280692
2.15719e-05
-0.00195474
-0.000131847
-0.00274158
-0.000410901
-0.00225141
-0.000709802
-0.001511
-0.000966031
-0.000906031
-0.00116403
-0.000512957
-0.00131268
-0.000297726
-0.00142681
-0.000204961
-0.00151836
-0.000188609
-0.00159495
-0.000215705
-0.00166165
-0.000259221
-0.00172239
-0.000287369
-0.00177836
-0.000253554
-0.00182192
-9.10244e-05
-0.00182476
0.000277762
-0.00173905
0.000920539
-0.0014999
0.00183678
-0.0010559
0.00285167
-0.00045316
0.00342357
0.00235383
-0.000245125
-0.00170953
-0.000829843
-0.00215666
-0.00147926
-0.00160173
-0.00203229
-0.000957709
-0.00244598
-0.000492073
-0.00273753
-0.00022115
-0.00294203
-9.29688e-05
-0.00309055
-5.61912e-05
-0.00320626
-7.26498e-05
-0.00330483
-0.0001169
-0.00339445
-0.00016936
-0.00347497
-0.000206608
-0.00353314
-0.000195141
-0.00353502
-8.8905e-05
-0.00342231
0.000165287
-0.00311748
0.000615945
-0.00254573
0.00126527
-0.00168522
0.00199136
-0.0006751
0.00241361
0.00167879
-0.000660544
-0.00104889
-0.00174666
-0.00107032
-0.00269399
-0.000654139
-0.00335057
-0.000300868
-0.00375283
-8.95549e-05
-0.00398015
6.41273e-06
-0.00411607
4.31944e-05
-0.00420657
3.45324e-05
-0.00428359
4.59269e-06
-0.00436873
-3.15418e-05
-0.00446717
-7.07114e-05
-0.00457125
-0.000102337
-0.00465347
-0.000112717
-0.00465975
-8.24387e-05
-0.0045107
1.64239e-05
-0.00409709
0.000202521
-0.00332664
0.000494995
-0.00218207
0.000846949
-0.000857878
0.00108954
0.000820966
-0.00104879
-0.00211889
-0.00277278
-0.00307339
-0.0031627
-0.00315605
-0.00311263
-0.00307789
-0.0030731
-0.00310445
-0.00317499
-0.00327716
-0.00338972
-0.00347201
-0.00345544
-0.00325279
-0.00275767
-0.00191062
-0.000821001
)
;

boundaryField
{
    leftWall
    {
        type            calculated;
        value           uniform 0;
    }
    rightWall
    {
        type            calculated;
        value           nonuniform List<scalar> 10(0 2.1684e-19 0 0 0 -4.33681e-19 0 0 0 0);
    }
    topWall
    {
        type            calculated;
        value           uniform 0;
    }
    bottomWall
    {
        type            calculated;
        value           uniform 0;
    }
    frontAndBackPlanes
    {
        type            empty;
    }
}


// ************************************************************************* //
