/*--------------------------------*- C++ -*----------------------------------*\
| =========                 |                                                 |
| \\      /  F ield         | OpenFOAM: The Open Source CFD Toolbox           |
|  \\    /   O peration     | Version:  2506                                  |
|   \\  /    A nd           | Website:  www.openfoam.com                      |
|    \\/     M anipulation  |                                                 |
\*---------------------------------------------------------------------------*/
FoamFile
{
    version     2.0;
    format      ascii;
    arch        "LSB;label=32;scalar=64";
    class       volVectorField;
    location    "44";
    object      U;
}
// * * * * * * * * * * * * * * * * * * * * * * * * * * * * * * * * * * * * * //

dimensions      [0 1 -1 0 0 0 0];

internalField   nonuniform List<vector> 
200
(
(-0.000177134 -0.000210215 0)
(0.000166009 -0.000360758 0)
(0.00100756 -0.000400689 0)
(0.00197272 -0.000410421 0)
(0.00290115 -0.00038575 0)
(0.00377254 -0.000350299 0)
(0.0045804 -0.00033055 0)
(0.00534887 -0.000343185 0)
(0.00612388 -0.000397725 0)
(0.00696141 -0.000499799 0)
(0.00791841 -0.000652261 0)
(0.00904404 -0.000853479 0)
(0.0103664 -0.00109149 0)
(0.0118697 -0.00133147 0)
(0.0134505 -0.00149231 0)
(0.014825 -0.00139912 0)
(0.0153803 -0.000689928 0)
(0.0141729 0.00123536 0)
(0.0102061 0.00454717 0)
(0.00308681 0.00650956 0)
(0.000117025 -0.00113317 0)
(0.00117775 -0.00251993 0)
(0.00280941 -0.00322603 0)
(0.00465302 -0.00343197 0)
(0.00645728 -0.00332224 0)
(0.00811554 -0.00309127 0)
(0.00960979 -0.00288581 0)
(0.0109711 -0.00279739 0)
(0.0122534 -0.00287198 0)
(0.0135138 -0.00312014 0)
(0.0147962 -0.00351976 0)
(0.0161138 -0.00400755 0)
(0.0174262 -0.00445544 0)
(0.0186082 -0.0046278 0)
(0.0194083 -0.00411503 0)
(0.0194031 -0.00224413 0)
(0.0179435 0.00197456 0)
(0.0142924 0.00933418 0)
(0.0083959 0.0183462 0)
(0.00146364 0.0190115 0)
(0.000220777 -0.00267596 0)
(0.00175438 -0.00586774 0)
(0.00383814 -0.00733529 0)
(0.00605518 -0.00759869 0)
(0.00810048 -0.00719207 0)
(0.00987011 -0.00654433 0)
(0.0113714 -0.00594148 0)
(0.0126572 -0.00554181 0)
(0.0137906 -0.00540641 0)
(0.0148246 -0.00552311 0)
(0.0157887 -0.0058138 0)
(0.0166739 -0.00612028 0)
(0.0174138 -0.00616744 0)
(0.0178593 -0.00550755 0)
(0.0177527 -0.00345918 0)
(0.0166958 0.000917023 0)
(0.0142795 0.008559 0)
(0.0103127 0.0195179 0)
(0.00529741 0.0302452 0)
(0.000687614 0.0264853 0)
(0.00027663 -0.00474497 0)
(0.00204563 -0.00993478 0)
(0.0042414 -0.0119355 0)
(0.00639308 -0.01192 0)
(0.00820148 -0.0109014 0)
(0.00961181 -0.00959777 0)
(0.0106852 -0.00843516 0)
(0.0115134 -0.00761498 0)
(0.0121802 -0.00718591 0)
(0.0127456 -0.0070928 0)
(0.0132399 -0.0071923 0)
(0.0136563 -0.00723364 0)
(0.013938 -0.00680949 0)
(0.0139593 -0.00529515 0)
(0.0135092 -0.00181902 0)
(0.0122674 0.00464275 0)
(0.0100208 0.0147755 0)
(0.00675777 0.0278684 0)
(0.00307347 0.0386944 0)
(0.000288224 0.0307465 0)
(0.000313304 -0.00703191 0)
(0.00207314 -0.0140545 0)
(0.00400956 -0.0161873 0)
(0.00568154 -0.0154993 0)
(0.00686762 -0.0135953 0)
(0.0076018 -0.0115019 0)
(0.00801342 -0.00975413 0)
(0.00823245 -0.00855225 0)
(0.00835588 -0.00789706 0)
(0.00844373 -0.0076724 0)
(0.0085234 -0.00766948 0)
(0.00859081 -0.00755894 0)
(0.00860377 -0.00682591 0)
(0.00846944 -0.00470286 0)
(0.00802696 -0.000173859 0)
(0.00705225 0.00778683 0)
(0.00543675 0.019586 0)
(0.00327778 0.0337712 0)
(0.00112094 0.04393 0)
(-1.87132e-05 0.03273 0)
(0.000309087 -0.00923476 0)
(0.00172013 -0.0175468 0)
(0.00294522 -0.0192764 0)
(0.00369958 -0.0175803 0)
(0.00392672 -0.0146829 0)
(0.00377402 -0.011867 0)
(0.00342421 -0.00969763 0)
(0.00301457 -0.00830977 0)
(0.00262505 -0.00762026 0)
(0.00229244 -0.00744162 0)
(0.00202483 -0.00750598 0)
(0.00180699 -0.00742154 0)
(0.00159917 -0.00659212 0)
(0.00133754 -0.00414958 0)
(0.000931009 0.00100558 0)
(0.00034355 0.00984084 0)
(-0.000363411 0.0224623 0)
(-0.000957727 0.0367076 0)
(-0.00107879 0.0456151 0)
(-0.000326604 0.0325029 0)
(0.000225132 -0.0108531 0)
(0.000764586 -0.019427 0)
(0.000697089 -0.0201888 0)
(6.19489e-05 -0.0173659 0)
(-0.000942557 -0.0136555 0)
(-0.00207888 -0.0104497 0)
(-0.00318715 -0.00821064 0)
(-0.00418741 -0.00693435 0)
(-0.0050573 -0.00643219 0)
(-0.00580468 -0.00645131 0)
(-0.00645055 -0.00668022 0)
(-0.00702127 -0.00668926 0)
(-0.00753928 -0.00585341 0)
(-0.00799957 -0.00331654 0)
(-0.00832995 0.00190625 0)
(-0.00831136 0.0105372 0)
(-0.00765405 0.022397 0)
(-0.00609933 0.0352956 0)
(-0.00368281 0.0426854 0)
(-0.000702786 0.0296472 0)
(-1.17582e-05 -0.0110189 0)
(-0.00107772 -0.0182895 0)
(-0.00306474 -0.0176817 0)
(-0.00541558 -0.0141087 0)
(-0.00769264 -0.010267 0)
(-0.00969645 -0.00729029 0)
(-0.0113926 -0.00542225 0)
(-0.012825 -0.0045233 0)
(-0.0140633 -0.00434262 0)
(-0.015174 -0.00461034 0)
(-0.016205 -0.00502409 0)
(-0.0171709 -0.00519169 0)
(-0.0180288 -0.00457687 0)
(-0.0186399 -0.00249317 0)
(-0.0187094 0.00179682 0)
(-0.0177968 0.00881586 0)
(-0.0154864 0.0183905 0)
(-0.0115616 0.0287053 0)
(-0.00645109 0.0344814 0)
(-0.00111392 0.0238311 0)
(-0.000512123 -0.00862737 0)
(-0.00378428 -0.012888 0)
(-0.00780589 -0.0112567 0)
(-0.0115555 -0.0079962 0)
(-0.0145193 -0.00505126 0)
(-0.0167083 -0.0030427 0)
(-0.0183295 -0.00197152 0)
(-0.0196108 -0.00162967 0)
(-0.0207399 -0.00178572 0)
(-0.0218482 -0.00223204 0)
(-0.0230047 -0.00276329 0)
(-0.0242016 -0.00313247 0)
(-0.0253262 -0.00301521 0)
(-0.0261264 -0.00200277 0)
(-0.0261726 0.000363609 0)
(-0.0248313 0.00449691 0)
(-0.0215274 0.0104207 0)
(-0.0159743 0.0170817 0)
(-0.00880633 0.0211966 0)
(-0.00151407 0.0151265 0)
(-0.00129036 -0.0028211 0)
(-0.00521269 -0.00340362 0)
(-0.00903704 -0.00241444 0)
(-0.0119116 -0.00129319 0)
(-0.0136721 -0.000494465 0)
(-0.014629 -5.19806e-05 0)
(-0.0151407 0.000118151 0)
(-0.0154822 0.000107046 0)
(-0.01584 -1.74912e-05 0)
(-0.0163328 -0.000211106 0)
(-0.0170228 -0.000441257 0)
(-0.0179109 -0.00067126 0)
(-0.0189181 -0.000845732 0)
(-0.0198539 -0.000879128 0)
(-0.0203746 -0.000640383 0)
(-0.0199877 6.98686e-05 0)
(-0.0180476 0.00144002 0)
(-0.0140417 0.00337975 0)
(-0.00827837 0.00508483 0)
(-0.00200189 0.00432594 0)
)
;

boundaryField
{
    leftWall
    {
        type            fixedValue;
        value           uniform (0 0 0);
    }
    rightWall
    {
        type            fixedValue;
        value           uniform (0 0 0);
    }
    topWall
    {
        type            fixedValue;
        value           uniform (0 0 0);
    }
    bottomWall
    {
        type            fixedValue;
        value           uniform (0 0 0);
    }
    frontAndBackPlanes
    {
        type            empty;
    }
}


// ************************************************************************* //
