/*--------------------------------*- C++ -*----------------------------------*\
| =========                 |                                                 |
| \\      /  F ield         | OpenFOAM: The Open Source CFD Toolbox           |
|  \\    /   O peration     | Version:  2506                                  |
|   \\  /    A nd           | Website:  www.openfoam.com                      |
|    \\/     M anipulation  |                                                 |
\*---------------------------------------------------------------------------*/
FoamFile
{
    version     2.0;
    format      ascii;
    arch        "LSB;label=32;scalar=64";
    class       volVectorField;
    location    "7";
    object      U;
}
// * * * * * * * * * * * * * * * * * * * * * * * * * * * * * * * * * * * * * //

dimensions      [0 1 -1 0 0 0 0];

internalField   nonuniform List<vector> 
200
(
(-0.000299852 -0.000185599 0)
(-0.000391941 -0.000242915 0)
(-0.000140791 -0.000206139 0)
(0.000209913 -0.000220407 0)
(0.000567828 -0.000245106 0)
(0.000992668 -0.000273447 0)
(0.00148956 -0.000312743 0)
(0.00206814 -0.000367703 0)
(0.00274638 -0.000442625 0)
(0.00354786 -0.000542657 0)
(0.00449964 -0.000673229 0)
(0.00562893 -0.000838021 0)
(0.00695585 -0.00103439 0)
(0.0084778 -0.00124367 0)
(0.0101359 -0.00141026 0)
(0.0117375 -0.00139506 0)
(0.0127974 -0.000877645 0)
(0.0124076 0.000754621 0)
(0.00941686 0.00394859 0)
(0.00299266 0.00632593 0)
(-3.89823e-05 -0.000264823 0)
(-3.73851e-05 -0.000613237 0)
(0.000195126 -0.000879531 0)
(0.000582691 -0.00114188 0)
(0.00109934 -0.00138087 0)
(0.00173724 -0.00162127 0)
(0.00249302 -0.00188824 0)
(0.00337033 -0.00220142 0)
(0.00437818 -0.00257604 0)
(0.00552681 -0.00302198 0)
(0.00682179 -0.00353834 0)
(0.00825476 -0.00410135 0)
(0.00978765 -0.00464164 0)
(0.0113274 -0.00500369 0)
(0.0126874 -0.00487585 0)
(0.0135339 -0.00367898 0)
(0.0133222 -0.000443634 0)
(0.0112788 0.00601042 0)
(0.00706917 0.0150874 0)
(0.00132737 0.0177333 0)
(-1.24703e-05 -0.000175371 0)
(1.99785e-05 -0.000800356 0)
(0.000225448 -0.00144928 0)
(0.000579043 -0.00202569 0)
(0.00106049 -0.00253651 0)
(0.00165462 -0.00302384 0)
(0.00235352 -0.00352801 0)
(0.00315451 -0.00407793 0)
(0.00405647 -0.00468957 0)
(0.00505525 -0.00536214 0)
(0.00613738 -0.00606743 0)
(0.00727105 -0.00672905 0)
(0.00839287 -0.00718721 0)
(0.00938994 -0.00714281 0)
(0.0100779 -0.00607622 0)
(0.0101796 -0.00315405 0)
(0.00931621 0.00276464 0)
(0.00721208 0.0124834 0)
(0.00402423 0.0238272 0)
(0.000597898 0.0238589 0)
(-1.55589e-05 -0.000179422 0)
(-1.06073e-05 -0.0010328 0)
(0.000117752 -0.00195332 0)
(0.000360144 -0.00277573 0)
(0.000700861 -0.00349953 0)
(0.00112504 -0.00417683 0)
(0.0016235 -0.00485806 0)
(0.00219146 -0.00557659 0)
(0.0028252 -0.00634509 0)
(0.00351815 -0.0071494 0)
(0.00425575 -0.00793437 0)
(0.00500873 -0.00857785 0)
(0.00572401 -0.00884967 0)
(0.00631377 -0.00835257 0)
(0.00664469 -0.00644821 0)
(0.00653409 -0.00220139 0)
(0.00577031 0.00550355 0)
(0.00425815 0.0171055 0)
(0.00220439 0.0292879 0)
(0.000282935 0.0270624 0)
(-2.13545e-05 -0.000112048 0)
(-8.20933e-05 -0.00108823 0)
(-6.83018e-05 -0.0021996 0)
(1.96076e-05 -0.00319975 0)
(0.000170184 -0.0040711 0)
(0.000369579 -0.00487258 0)
(0.000609809 -0.00566486 0)
(0.000888392 -0.00648742 0)
(0.00120598 -0.0073527 0)
(0.0015634 -0.00823873 0)
(0.001958 -0.00907252 0)
(0.00237877 -0.00970076 0)
(0.00279956 -0.00984562 0)
(0.0031705 -0.00904541 0)
(0.00340845 -0.00658955 0)
(0.00339647 -0.00149883 0)
(0.00300417 0.00728463 0)
(0.00218054 0.0199275 0)
(0.0010753 0.0324029 0)
(0.000122477 0.0286934 0)
(-3.04105e-05 4.31948e-05 0)
(-0.000165307 -0.000939277 0)
(-0.000276097 -0.00215287 0)
(-0.000359207 -0.00325148 0)
(-0.000422169 -0.00419509 0)
(-0.000476714 -0.00504959 0)
(-0.000528307 -0.00588838 0)
(-0.000574695 -0.00676173 0)
(-0.000607335 -0.00768897 0)
(-0.000613059 -0.0086501 0)
(-0.000575967 -0.00956734 0)
(-0.000480673 -0.0102723 0)
(-0.000317973 -0.0104567 0)
(-9.2896e-05 -0.00960817 0)
(0.000156948 -0.00694712 0)
(0.000362003 -0.00143979 0)
(0.000431055 0.00794108 0)
(0.000321679 0.0211605 0)
(0.000107899 0.0337546 0)
(-1.30995e-05 0.0292946 0)
(-3.76817e-05 0.000280435 0)
(-0.000225961 -0.000592272 0)
(-0.000440113 -0.00180943 0)
(-0.000683168 -0.00291186 0)
(-0.000962253 -0.0038351 0)
(-0.00128656 -0.00465463 0)
(-0.00165813 -0.00546046 0)
(-0.00207055 -0.00631879 0)
(-0.00250938 -0.00726351 0)
(-0.00295163 -0.00828797 0)
(-0.00336434 -0.0093251 0)
(-0.00370403 -0.01021 0)
(-0.00391957 -0.0106223 0)
(-0.00396146 -0.0100121 0)
(-0.00379718 -0.00753732 0)
(-0.00341989 -0.00208872 0)
(-0.00284857 0.00736847 0)
(-0.00209983 0.0206516 0)
(-0.0011734 0.0331621 0)
(-0.000191824 0.0287624 0)
(-3.08239e-05 0.000544136 0)
(-0.000197083 -0.000130578 0)
(-0.000447657 -0.0012333 0)
(-0.000805195 -0.00220777 0)
(-0.00127503 -0.0029805 0)
(-0.00185778 -0.00364208 0)
(-0.00254999 -0.00429839 0)
(-0.00334577 -0.00503016 0)
(-0.0042358 -0.00588831 0)
(-0.00520314 -0.00688954 0)
(-0.00621624 -0.0079978 0)
(-0.00722042 -0.00908408 0)
(-0.00813032 -0.00985893 0)
(-0.00882757 -0.00978115 0)
(-0.00916453 -0.00797672 0)
(-0.00896267 -0.00327544 0)
(-0.00799907 0.005397 0)
(-0.00614666 0.0178164 0)
(-0.00349506 0.0297188 0)
(-0.000580896 0.026334 0)
(1.71247e-05 0.000674875 0)
(3.04918e-05 0.000222549 0)
(-0.00014113 -0.000605346 0)
(-0.000527757 -0.00127617 0)
(-0.00110846 -0.00175008 0)
(-0.001854 -0.00212818 0)
(-0.00275021 -0.00251281 0)
(-0.00380064 -0.00298014 0)
(-0.00502092 -0.00358509 0)
(-0.00643087 -0.00436421 0)
(-0.00804341 -0.00532407 0)
(-0.00984816 -0.006407 0)
(-0.0117861 -0.00742468 0)
(-0.0137128 -0.0079597 0)
(-0.0153507 -0.00727119 0)
(-0.0162343 -0.00431201 0)
(-0.01564 0.00195458 0)
(-0.0127915 0.0115725 0)
(-0.0077053 0.0214167 0)
(-0.00142825 0.020265 0)
(0.000145714 0.000320681 0)
(0.000390186 0.00016067 0)
(0.00035809 -9.12519e-05 0)
(6.96576e-05 -0.000255692 0)
(-0.000393389 -0.000344782 0)
(-0.000970362 -0.000404477 0)
(-0.00164744 -0.000469803 0)
(-0.00244349 -0.000563845 0)
(-0.00339914 -0.000704536 0)
(-0.0045717 -0.000908689 0)
(-0.00603137 -0.00119111 0)
(-0.00785119 -0.00155574 0)
(-0.0100814 -0.00197285 0)
(-0.0126921 -0.00233891 0)
(-0.0154606 -0.00242957 0)
(-0.0177987 -0.00187804 0)
(-0.0186451 -0.000228778 0)
(-0.0167287 0.00284174 0)
(-0.0113954 0.00662326 0)
(-0.00332361 0.00740776 0)
)
;

boundaryField
{
    leftWall
    {
        type            fixedValue;
        value           uniform (0 0 0);
    }
    rightWall
    {
        type            fixedValue;
        value           uniform (0 0 0);
    }
    topWall
    {
        type            fixedValue;
        value           uniform (0 0 0);
    }
    bottomWall
    {
        type            fixedValue;
        value           uniform (0 0 0);
    }
    frontAndBackPlanes
    {
        type            empty;
    }
}


// ************************************************************************* //
