/*--------------------------------*- C++ -*----------------------------------*\
| =========                 |                                                 |
| \\      /  F ield         | OpenFOAM: The Open Source CFD Toolbox           |
|  \\    /   O peration     | Version:  2506                                  |
|   \\  /    A nd           | Website:  www.openfoam.com                      |
|    \\/     M anipulation  |                                                 |
\*---------------------------------------------------------------------------*/
FoamFile
{
    version     2.0;
    format      ascii;
    arch        "LSB;label=32;scalar=64";
    class       volVectorField;
    location    "105.6";
    object      U;
}
// * * * * * * * * * * * * * * * * * * * * * * * * * * * * * * * * * * * * * //

dimensions      [0 1 -1 0 0 0 0];

internalField   nonuniform List<vector> 
200
(
(0.000384785 -0.00105271 0)
(0.00209713 -0.00136093 0)
(0.00397896 -0.00101983 0)
(0.00551554 -0.000573262 0)
(0.00649711 -0.000226031 0)
(0.00703875 -2.62282e-05 0)
(0.00731759 4.05941e-05 0)
(0.00749525 9.11988e-06 0)
(0.0076952 -8.75608e-05 0)
(0.00800363 -0.000227372 0)
(0.00847809 -0.000400767 0)
(0.00915638 -0.000606522 0)
(0.0100591 -0.000842031 0)
(0.0111767 -0.00108592 0)
(0.0124267 -0.00126761 0)
(0.0135547 -0.00121325 0)
(0.0139881 -0.000562166 0)
(0.0128284 0.00122507 0)
(0.00916845 0.00422992 0)
(0.00275974 0.00585653 0)
(0.000473927 -0.00426181 0)
(0.00307722 -0.00671205 0)
(0.00596952 -0.0061192 0)
(0.00849878 -0.00448217 0)
(0.010351 -0.00284401 0)
(0.0115762 -0.00164466 0)
(0.01236 -0.000980645 0)
(0.0128979 -0.000786207 0)
(0.013347 -0.000943055 0)
(0.0138152 -0.00133724 0)
(0.0143631 -0.00187823 0)
(0.0150089 -0.0024889 0)
(0.015723 -0.00306899 0)
(0.0164073 -0.00342993 0)
(0.0168554 -0.0032005 0)
(0.0167004 -0.00172114 0)
(0.015349 0.00196658 0)
(0.0121468 0.0085619 0)
(0.00705808 0.0165573 0)
(0.001202 0.016811 0)
(0.000472983 -0.00769082 0)
(0.00304898 -0.0125179 0)
(0.00583481 -0.0118205 0)
(0.00827171 -0.0090701 0)
(0.0100817 -0.00616201 0)
(0.0113134 -0.00391367 0)
(0.0121288 -0.00253036 0)
(0.0126884 -0.00192274 0)
(0.0131127 -0.00189566 0)
(0.0134767 -0.0022451 0)
(0.0138147 -0.00279091 0)
(0.0141234 -0.00336101 0)
(0.0143559 -0.00373435 0)
(0.0144039 -0.00354874 0)
(0.0140714 -0.00219491 0)
(0.0130387 0.00122991 0)
(0.0109984 0.00762642 0)
(0.00779803 0.0170712 0)
(0.00386598 0.0262742 0)
(0.000447586 0.0226522 0)
(0.000431505 -0.0109124 0)
(0.00265934 -0.0177271 0)
(0.00489974 -0.0167287 0)
(0.00674002 -0.0128802 0)
(0.00802155 -0.00883885 0)
(0.00884413 -0.00570778 0)
(0.00936505 -0.00373312 0)
(0.00970832 -0.00276615 0)
(0.00994804 -0.00252866 0)
(0.0101196 -0.00274187 0)
(0.0102336 -0.00316316 0)
(0.0102808 -0.00355648 0)
(0.0102255 -0.00361332 0)
(0.00998786 -0.00284494 0)
(0.00942463 -0.000496939 0)
(0.00833478 0.00438125 0)
(0.00659257 0.0125082 0)
(0.00422171 0.023347 0)
(0.00169884 0.0322872 0)
(7.37802e-05 0.025308 0)
(0.000371322 -0.0136349 0)
(0.00205744 -0.0217305 0)
(0.00348996 -0.0201335 0)
(0.004473 -0.0152361 0)
(0.00501613 -0.0103071 0)
(0.00527917 -0.00659153 0)
(0.00540491 -0.00427799 0)
(0.00546996 -0.00311489 0)
(0.00549921 -0.00274313 0)
(0.00549419 -0.00283927 0)
(0.0054513 -0.00313795 0)
(0.00536401 -0.00337614 0)
(0.00521154 -0.00318977 0)
(0.00494113 -0.00199884 0)
(0.00444667 0.00104107 0)
(0.0036412 0.00684022 0)
(0.00249221 0.0159154 0)
(0.00114955 0.0271723 0)
(2.6032e-05 0.035206 0)
(-0.000171882 0.0259114 0)
(0.000285224 -0.0156611 0)
(0.00120619 -0.0241172 0)
(0.00157654 -0.0216311 0)
(0.00151136 -0.0158495 0)
(0.00121605 -0.0104 0)
(0.000879876 -0.00647788 0)
(0.000592958 -0.00411951 0)
(0.000365704 -0.00295488 0)
(0.000176635 -0.00257196 0)
(5.09323e-06 -0.00264138 0)
(-0.000159966 -0.00290377 0)
(-0.000327818 -0.00308344 0)
(-0.000518367 -0.0027729 0)
(-0.000766267 -0.00133219 0)
(-0.00111596 0.00210505 0)
(-0.0015413 0.0083456 0)
(-0.00192485 0.0176213 0)
(-0.00201839 0.0284032 0)
(-0.00155615 0.0351411 0)
(-0.000365365 0.0248035 0)
(0.000154267 -0.0166123 0)
(-6.99941e-05 -0.0242922 0)
(-0.00110962 -0.0207107 0)
(-0.00240508 -0.0144165 0)
(-0.00360318 -0.00898848 0)
(-0.00455795 -0.0053209 0)
(-0.00527155 -0.00322979 0)
(-0.00580537 -0.00226052 0)
(-0.00622124 -0.00200147 0)
(-0.00656161 -0.00214917 0)
(-0.00685298 -0.0024585 0)
(-0.00711559 -0.0026466 0)
(-0.00736474 -0.0022948 0)
(-0.0075923 -0.000791113 0)
(-0.00772679 0.0026154 0)
(-0.00759011 0.00855135 0)
(-0.00692574 0.0170387 0)
(-0.00547891 0.0264885 0)
(-0.00326275 0.0318631 0)
(-0.000597911 0.0219277 0)
(-0.00016927 -0.0157856 0)
(-0.00214237 -0.021277 0)
(-0.00489039 -0.0167782 0)
(-0.00750027 -0.0107224 0)
(-0.00953903 -0.00602766 0)
(-0.0109886 -0.00311864 0)
(-0.0119895 -0.00161852 0)
(-0.0126951 -0.00105581 0)
(-0.0132228 -0.00106093 0)
(-0.0136539 -0.00137506 0)
(-0.0140394 -0.00178795 0)
(-0.0143998 -0.00205206 0)
(-0.0147144 -0.00181554 0)
(-0.0148918 -0.000597364 0)
(-0.0147213 0.00215886 0)
(-0.0138967 0.00691316 0)
(-0.0120631 0.0136294 0)
(-0.00900271 0.0210042 0)
(-0.00500803 0.0250879 0)
(-0.000847905 0.0171845 0)
(-0.000796441 -0.0120595 0)
(-0.00511418 -0.0141819 0)
(-0.00951113 -0.00966287 0)
(-0.0129243 -0.00504656 0)
(-0.0150998 -0.00199523 0)
(-0.0163417 -0.000413366 0)
(-0.0170324 0.000175932 0)
(-0.0174548 0.000190192 0)
(-0.017775 -0.000103099 0)
(-0.0180973 -0.000542778 0)
(-0.018478 -0.00100548 0)
(-0.0189169 -0.00135047 0)
(-0.0193469 -0.00137721 0)
(-0.0196054 -0.000807741 0)
(-0.0193972 0.000698049 0)
(-0.0182859 0.00347306 0)
(-0.0158094 0.00756184 0)
(-0.011713 0.0122273 0)
(-0.00643291 0.015083 0)
(-0.00109049 0.010669 0)
(-0.00192672 -0.00411648 0)
(-0.00688041 -0.00368067 0)
(-0.0105102 -0.00177555 0)
(-0.0124969 -0.000400191 0)
(-0.0132295 0.000270407 0)
(-0.0133103 0.000482704 0)
(-0.0131416 0.000455518 0)
(-0.0129418 0.000331152 0)
(-0.0128373 0.000172059 0)
(-0.0128845 -1.34383e-06 0)
(-0.0131004 -0.000176513 0)
(-0.0134764 -0.000339368 0)
(-0.0139579 -0.000462188 0)
(-0.0144185 -0.000492537 0)
(-0.0146273 -0.000341113 0)
(-0.0142396 0.000132477 0)
(-0.0127943 0.00104812 0)
(-0.00991426 0.00235486 0)
(-0.0058099 0.00351003 0)
(-0.00138462 0.00297453 0)
)
;

boundaryField
{
    leftWall
    {
        type            fixedValue;
        value           uniform (0 0 0);
    }
    rightWall
    {
        type            fixedValue;
        value           uniform (0 0 0);
    }
    topWall
    {
        type            fixedValue;
        value           uniform (0 0 0);
    }
    bottomWall
    {
        type            fixedValue;
        value           uniform (0 0 0);
    }
    frontAndBackPlanes
    {
        type            empty;
    }
}


// ************************************************************************* //
