/*--------------------------------*- C++ -*----------------------------------*\
| =========                 |                                                 |
| \\      /  F ield         | OpenFOAM: The Open Source CFD Toolbox           |
|  \\    /   O peration     | Version:  2506                                  |
|   \\  /    A nd           | Website:  www.openfoam.com                      |
|    \\/     M anipulation  |                                                 |
\*---------------------------------------------------------------------------*/
FoamFile
{
    version     2.0;
    format      ascii;
    arch        "LSB;label=32;scalar=64";
    class       volScalarField;
    location    "126.4";
    object      T;
}
// * * * * * * * * * * * * * * * * * * * * * * * * * * * * * * * * * * * * * //

dimensions      [0 0 0 1 0 0 0];

internalField   nonuniform List<scalar> 
200
(
273.167
273.196
273.218
273.233
273.243
273.25
273.255
273.259
273.263
273.267
273.271
273.276
273.28
273.284
273.29
273.301
273.325
273.386
273.537
273.865
273.177
273.225
273.258
273.278
273.289
273.295
273.298
273.3
273.302
273.304
273.307
273.31
273.314
273.317
273.32
273.326
273.346
273.406
273.561
273.89
273.191
273.265
273.315
273.344
273.359
273.364
273.365
273.365
273.364
273.364
273.365
273.366
273.366
273.366
273.365
273.368
273.385
273.446
273.606
273.922
273.206
273.305
273.374
273.413
273.43
273.436
273.435
273.432
273.429
273.427
273.425
273.424
273.421
273.416
273.411
273.41
273.427
273.492
273.654
273.952
273.22
273.346
273.431
273.478
273.497
273.501
273.498
273.493
273.489
273.485
273.482
273.478
273.472
273.463
273.455
273.453
273.473
273.544
273.707
273.978
273.235
273.387
273.487
273.538
273.557
273.559
273.554
273.549
273.545
273.542
273.539
273.534
273.526
273.516
273.508
273.51
273.536
273.61
273.761
274
273.252
273.431
273.542
273.593
273.61
273.612
273.61
273.608
273.607
273.607
273.606
273.603
273.597
273.59
273.587
273.593
273.62
273.688
273.819
274.022
273.274
273.476
273.592
273.644
273.664
273.672
273.676
273.68
273.685
273.689
273.692
273.693
273.693
273.692
273.692
273.7
273.725
273.781
273.884
274.046
273.297
273.517
273.637
273.693
273.72
273.735
273.747
273.757
273.766
273.775
273.784
273.792
273.799
273.805
273.812
273.822
273.843
273.884
273.958
274.074
273.314
273.538
273.658
273.717
273.748
273.768
273.783
273.797
273.81
273.824
273.838
273.852
273.867
273.882
273.898
273.916
273.939
273.973
274.024
274.099
)
;

boundaryField
{
    leftWall
    {
        type            fixedValue;
        value           uniform 273.15;
    }
    rightWall
    {
        type            customNeumannDirichletCoupledBoundary;
        refValue        nonuniform List<scalar> 10(274.13 274.132 274.133 274.135 274.137 274.139 274.14 274.142 274.144 274.145);
        refGradient     uniform 0;
        valueFraction   uniform 1;
        source          uniform 0;
        value           nonuniform List<scalar> 10(274.13 274.132 274.133 274.135 274.137 274.139 274.14 274.142 274.144 274.145);
        kappaMethod     fluidThermo;
    }
    topWall
    {
        type            zeroGradient;
    }
    bottomWall
    {
        type            zeroGradient;
    }
    frontAndBackPlanes
    {
        type            empty;
    }
}


// ************************************************************************* //
