/*--------------------------------*- C++ -*----------------------------------*\
| =========                 |                                                 |
| \\      /  F ield         | OpenFOAM: The Open Source CFD Toolbox           |
|  \\    /   O peration     | Version:  2506                                  |
|   \\  /    A nd           | Website:  www.openfoam.com                      |
|    \\/     M anipulation  |                                                 |
\*---------------------------------------------------------------------------*/
FoamFile
{
    version     2.0;
    format      ascii;
    arch        "LSB;label=32;scalar=64";
    class       volScalarField;
    location    "51.4";
    object      T;
}
// * * * * * * * * * * * * * * * * * * * * * * * * * * * * * * * * * * * * * //

dimensions      [0 0 0 1 0 0 0];

internalField   nonuniform List<scalar> 
200
(
273.151
273.152
273.153
273.154
273.155
273.155
273.155
273.155
273.155
273.155
273.155
273.155
273.156
273.157
273.16
273.168
273.19
273.253
273.418
273.799
273.153
273.158
273.162
273.166
273.168
273.169
273.169
273.169
273.169
273.169
273.169
273.169
273.169
273.169
273.169
273.174
273.193
273.256
273.43
273.823
273.157
273.169
273.18
273.188
273.192
273.195
273.195
273.195
273.195
273.194
273.194
273.192
273.19
273.187
273.185
273.187
273.208
273.277
273.464
273.854
273.162
273.187
273.206
273.22
273.228
273.231
273.232
273.231
273.23
273.228
273.226
273.222
273.217
273.211
273.204
273.205
273.228
273.306
273.503
273.884
273.17
273.209
273.24
273.26
273.271
273.276
273.276
273.275
273.272
273.269
273.265
273.26
273.251
273.239
273.229
273.229
273.256
273.344
273.549
273.913
273.179
273.235
273.278
273.307
273.321
273.327
273.327
273.325
273.323
273.32
273.316
273.309
273.297
273.282
273.268
273.271
273.307
273.405
273.607
273.939
273.19
273.264
273.322
273.358
273.377
273.384
273.386
273.387
273.387
273.387
273.385
273.38
273.371
273.359
273.352
273.36
273.399
273.492
273.674
273.964
273.202
273.299
273.37
273.413
273.437
273.45
273.459
273.467
273.475
273.481
273.485
273.487
273.486
273.484
273.484
273.495
273.529
273.608
273.756
273.994
273.217
273.332
273.414
273.467
273.501
273.525
273.545
273.562
273.578
273.593
273.606
273.618
273.629
273.638
273.648
273.661
273.689
273.747
273.854
274.03
273.227
273.351
273.438
273.497
273.538
273.57
273.596
273.62
273.643
273.666
273.688
273.71
273.732
273.755
273.778
273.802
273.832
273.879
273.952
274.068
)
;

boundaryField
{
    leftWall
    {
        type            fixedValue;
        value           uniform 273.15;
    }
    rightWall
    {
        type            customNeumannDirichletCoupledBoundary;
        refValue        nonuniform List<scalar> 10(274.126 274.127 274.129 274.13 274.132 274.134 274.136 274.138 274.14 274.142);
        refGradient     uniform 0;
        valueFraction   uniform 1;
        source          uniform 0;
        value           nonuniform List<scalar> 10(274.126 274.127 274.129 274.13 274.132 274.134 274.136 274.138 274.14 274.142);
        kappaMethod     fluidThermo;
    }
    topWall
    {
        type            zeroGradient;
    }
    bottomWall
    {
        type            zeroGradient;
    }
    frontAndBackPlanes
    {
        type            empty;
    }
}


// ************************************************************************* //
