/*--------------------------------*- C++ -*----------------------------------*\
| =========                 |                                                 |
| \\      /  F ield         | OpenFOAM: The Open Source CFD Toolbox           |
|  \\    /   O peration     | Version:  2506                                  |
|   \\  /    A nd           | Website:  www.openfoam.com                      |
|    \\/     M anipulation  |                                                 |
\*---------------------------------------------------------------------------*/
FoamFile
{
    version     2.0;
    format      ascii;
    arch        "LSB;label=32;scalar=64";
    class       volVectorField;
    location    "51.4";
    object      U;
}
// * * * * * * * * * * * * * * * * * * * * * * * * * * * * * * * * * * * * * //

dimensions      [0 1 -1 0 0 0 0];

internalField   nonuniform List<vector> 
200
(
(-0.000106083 -0.000298043 0)
(0.00038144 -0.000465963 0)
(0.0012998 -0.000455694 0)
(0.00226614 -0.000403379 0)
(0.00311625 -0.000334929 0)
(0.00385684 -0.00027909 0)
(0.00451456 -0.000257102 0)
(0.0051383 -0.000278061 0)
(0.00578829 -0.000345139 0)
(0.00652686 -0.000460227 0)
(0.00741311 -0.00062515 0)
(0.00849739 -0.000839188 0)
(0.00980992 -0.00109177 0)
(0.0113376 -0.00134798 0)
(0.0129775 -0.0015238 0)
(0.0144397 -0.00143959 0)
(0.0150909 -0.000729785 0)
(0.0139755 0.00120581 0)
(0.0100941 0.00451773 0)
(0.00306139 0.00646345 0)
(0.000164336 -0.00146869 0)
(0.00138437 -0.0029049 0)
(0.00307615 -0.00336141 0)
(0.00485576 -0.00326529 0)
(0.00648646 -0.00292862 0)
(0.00790655 -0.00258101 0)
(0.00914349 -0.00235549 0)
(0.0102615 -0.00231271 0)
(0.0113336 -0.00246897 0)
(0.0124262 -0.00281457 0)
(0.013587 -0.00331853 0)
(0.014833 -0.00391739 0)
(0.0161299 -0.00448547 0)
(0.0173591 -0.00478367 0)
(0.0182723 -0.00438689 0)
(0.0184404 -0.00259858 0)
(0.0172056 0.0015852 0)
(0.0137989 0.00896277 0)
(0.00813856 0.0180042 0)
(0.00142045 0.0187457 0)
(0.000259743 -0.00323343 0)
(0.00189388 -0.00641191 0)
(0.00394924 -0.00737964 0)
(0.00601564 -0.00709985 0)
(0.0078277 -0.00631206 0)
(0.00933242 -0.00548828 0)
(0.010576 -0.00487863 0)
(0.011633 -0.00458237 0)
(0.0125738 -0.00460827 0)
(0.013452 -0.00491121 0)
(0.0142962 -0.00540169 0)
(0.0151009 -0.00592663 0)
(0.0158102 -0.00622097 0)
(0.0162906 -0.00583539 0)
(0.0162987 -0.00406102 0)
(0.0154484 8.92153e-05 0)
(0.0133014 0.00761648 0)
(0.00965096 0.01856 0)
(0.00495792 0.0293484 0)
(0.000634925 0.0258673 0)
(0.000304615 -0.00544232 0)
(0.00210314 -0.0104635 0)
(0.00419124 -0.0117113 0)
(0.00614303 -0.0109737 0)
(0.00771902 -0.00950667 0)
(0.00891257 -0.00804464 0)
(0.00980716 -0.0069368 0)
(0.0104953 -0.00629237 0)
(0.0110495 -0.00608932 0)
(0.0115167 -0.00623598 0)
(0.0119195 -0.00658656 0)
(0.0122533 -0.0069128 0)
(0.0124763 -0.0068367 0)
(0.0124879 -0.00574266 0)
(0.0121034 -0.0027198 0)
(0.0110239 0.00334914 0)
(0.00902338 0.0132295 0)
(0.00607386 0.0262303 0)
(0.00272434 0.0371399 0)
(0.000236166 0.0297308 0)
(0.000327039 -0.00778294 0)
(0.00205481 -0.0144277 0)
(0.00384414 -0.0156062 0)
(0.00532917 -0.0141254 0)
(0.0063561 -0.0118173 0)
(0.00699161 -0.00966137 0)
(0.00736094 -0.00806035 0)
(0.0075693 -0.00709165 0)
(0.00768472 -0.0066787 0)
(0.00774525 -0.00668001 0)
(0.00776882 -0.00690663 0)
(0.00775563 -0.00707907 0)
(0.00768024 -0.00673831 0)
(0.00747641 -0.00514364 0)
(0.00702059 -0.00123574 0)
(0.00610345 0.00615853 0)
(0.00463509 0.0175408 0)
(0.00271027 0.0315173 0)
(0.000828656 0.0417554 0)
(-6.2314e-05 0.0313546 0)
(0.000309273 -0.00996669 0)
(0.00165103 -0.017693 0)
(0.00273934 -0.0183679 0)
(0.00338006 -0.015937 0)
(0.00357569 -0.0127816 0)
(0.00347719 -0.0100435 0)
(0.00323161 -0.00810029 0)
(0.00293131 -0.00695112 0)
(0.00262154 -0.00645083 0)
(0.00232158 -0.00641468 0)
(0.0020376 -0.00662433 0)
(0.00176276 -0.00676299 0)
(0.00147024 -0.00630868 0)
(0.00111058 -0.00443187 0)
(0.000619165 7.83274e-06 0)
(-3.92708e-05 0.00814431 0)
(-0.000739008 0.0201574 0)
(-0.00124205 0.034029 0)
(-0.00122392 0.0429795 0)
(-0.000343521 0.0308797 0)
(0.000215856 -0.0115225 0)
(0.000676884 -0.019357 0)
(0.000525866 -0.0190893 0)
(-0.000108445 -0.0157021 0)
(-0.00100085 -0.0119371 0)
(-0.00195079 -0.00893662 0)
(-0.00285175 -0.00694702 0)
(-0.00366643 -0.00585154 0)
(-0.00439424 -0.00543942 0)
(-0.00504734 -0.00549509 0)
(-0.00564245 -0.00577677 0)
(-0.00620128 -0.00593559 0)
(-0.00674692 -0.00541746 0)
(-0.00728075 -0.00340237 0)
(-0.00773669 0.00112286 0)
(-0.00787475 0.00899107 0)
(-0.00737104 0.0201623 0)
(-0.00593982 0.0325876 0)
(-0.00360608 0.0399651 0)
(-0.000685929 0.0279765 0)
(-2.77505e-05 -0.0116109 0)
(-0.00115911 -0.018081 0)
(-0.00313915 -0.0165999 0)
(-0.00536057 -0.0127059 0)
(-0.00741381 -0.00897932 0)
(-0.00915705 -0.00626718 0)
(-0.0106001 -0.00462021 0)
(-0.0118076 -0.00382946 0)
(-0.0128521 -0.0036566 0)
(-0.0137961 -0.00388476 0)
(-0.0146865 -0.00427935 0)
(-0.015545 -0.00451566 0)
(-0.0163466 -0.0041125 0)
(-0.0169771 -0.00241334 0)
(-0.0171709 0.00132743 0)
(-0.0164845 0.00768745 0)
(-0.0144794 0.016614 0)
(-0.0108987 0.026444 0)
(-0.00611878 0.0321479 0)
(-0.00105845 0.0223844 0)
(-0.000546638 -0.00911741 0)
(-0.00388184 -0.012664 0)
(-0.00778247 -0.0104199 0)
(-0.0112739 -0.00705361 0)
(-0.0139361 -0.00431138 0)
(-0.0158498 -0.00255958 0)
(-0.0172423 -0.00166167 0)
(-0.0183294 -0.00137834 0)
(-0.0192779 -0.0015038 0)
(-0.0202049 -0.00187679 0)
(-0.0211786 -0.00234105 0)
(-0.0222051 -0.00269401 0)
(-0.0231992 -0.00264687 0)
(-0.0239457 -0.00181413 0)
(-0.0240554 0.000253429 0)
(-0.0229286 0.00397609 0)
(-0.0199884 0.00944627 0)
(-0.0149137 0.0157249 0)
(-0.0082604 0.0197189 0)
(-0.0014238 0.0141735 0)
(-0.00140504 -0.00304561 0)
(-0.00542747 -0.00334932 0)
(-0.00904635 -0.00217626 0)
(-0.0116042 -0.00106172 0)
(-0.0130924 -0.000356011 0)
(-0.0138754 -4.3439e-06 0)
(-0.0142936 0.000112818 0)
(-0.0145803 8.90398e-05 0)
(-0.0148844 -1.84761e-05 0)
(-0.0153011 -0.000178502 0)
(-0.0158849 -0.000370314 0)
(-0.0166433 -0.000567296 0)
(-0.0175167 -0.000722871 0)
(-0.0183444 -0.000759683 0)
(-0.0188219 -0.00055655 0)
(-0.0184943 7.09662e-05 0)
(-0.0167504 0.00131392 0)
(-0.0130824 0.00311065 0)
(-0.00774281 0.00472311 0)
(-0.0018775 0.00405023 0)
)
;

boundaryField
{
    leftWall
    {
        type            fixedValue;
        value           uniform (0 0 0);
    }
    rightWall
    {
        type            fixedValue;
        value           uniform (0 0 0);
    }
    topWall
    {
        type            fixedValue;
        value           uniform (0 0 0);
    }
    bottomWall
    {
        type            fixedValue;
        value           uniform (0 0 0);
    }
    frontAndBackPlanes
    {
        type            empty;
    }
}


// ************************************************************************* //
