/*--------------------------------*- C++ -*----------------------------------*\
| =========                 |                                                 |
| \\      /  F ield         | OpenFOAM: The Open Source CFD Toolbox           |
|  \\    /   O peration     | Version:  2506                                  |
|   \\  /    A nd           | Website:  www.openfoam.com                      |
|    \\/     M anipulation  |                                                 |
\*---------------------------------------------------------------------------*/
FoamFile
{
    version     2.0;
    format      ascii;
    arch        "LSB;label=32;scalar=64";
    class       surfaceScalarField;
    location    "63";
    object      phi;
}
// * * * * * * * * * * * * * * * * * * * * * * * * * * * * * * * * * * * * * //

dimensions      [1 0 -1 0 0 0 0];

oriented        oriented;

internalField   nonuniform List<scalar> 
370
(
7.61056e-05
-0.000146362
0.000330392
-0.00025422
0.000593857
-0.000263366
0.000823203
-0.000229226
0.0010076
-0.000184266
0.00115537
-0.000147629
0.00128293
-0.000127413
0.00140819
-0.000125108
0.0015477
-0.000139357
0.00171595
-0.000168087
0.00192526
-0.000209145
0.00218495
-0.000259516
0.00249776
-0.000312626
0.00285208
-0.000354137
0.00320728
-0.000355004
0.00346836
-0.000260891
0.00343771
3.08537e-05
0.00289389
0.000544007
0.0015968
0.00129727
0.0015969
0.00023023
-0.00037655
0.000669657
-0.00069353
0.00114578
-0.000739313
0.0015737
-0.000656954
0.0019291
-0.000539445
0.00221882
-0.000437127
0.00246267
-0.000371041
0.00268304
-0.000345248
0.0028996
-0.000355686
0.00312693
-0.00039519
0.00337303
-0.000455003
0.00363669
-0.000522939
0.00390243
-0.000578113
0.00413088
-0.000582329
0.00424537
-0.000469227
0.00412155
-0.000136809
0.00361131
0.000541346
0.00254027
0.00161531
0.00104437
0.00279339
0.00264138
0.000289103
-0.000665586
0.00080064
-0.00120488
0.00133466
-0.00127307
0.00180149
-0.00112347
0.00217864
-0.000916262
0.00247593
-0.000734087
0.00271421
-0.000608987
0.00291435
-0.000545055
0.00309256
-0.000533561
0.0032588
-0.000561107
0.00341604
-0.000611909
0.00355828
-0.000664838
0.00366612
-0.000685607
0.00369948
-0.000615337
0.00359057
-0.000359973
0.00324659
0.000207524
0.00258991
0.00119836
0.00162264
0.0025829
0.000570449
0.00384584
0.00321196
0.000302575
-0.000968072
0.000808515
-0.00171058
0.00130424
-0.00176845
0.00170876
-0.00152758
0.00201199
-0.00121907
0.0022323
-0.000953961
0.00239346
-0.00076972
0.00251502
-0.000666195
0.00260991
-0.000628041
0.00268513
-0.00063591
0.00274256
-0.00066892
0.00277812
-0.000699981
0.00277814
-0.000685205
0.00271346
-0.000550221
0.00253567
-0.000181753
0.00218558
0.000558035
0.00163243
0.00175192
0.000926064
0.00328963
0.000268525
0.00450368
0.00348063
0.000284213
-0.00125218
0.000714996
-0.00214106
0.00109236
-0.0021454
0.00136064
-0.00179539
0.00153053
-0.00138847
0.00163078
-0.00105372
0.00168678
-0.000825228
0.00171498
-0.000693926
0.00172447
-0.000637059
0.00171997
-0.000630939
0.00170362
-0.000652092
0.00167411
-0.000669994
0.00162336
-0.000633969
0.00153218
-0.000458549
0.00136811
-1.71884e-05
0.00109828
0.000828346
0.000723587
0.00212707
0.000316871
0.00369677
3.4026e-05
0.00478685
0.00351479
0.000223606
-0.00147566
0.000494461
-0.00241159
0.000665351
-0.00231583
0.000727446
-0.00185696
0.000718132
-0.00137862
0.000672578
-0.00100764
0.000611786
-0.000763923
0.000545228
-0.000626864
0.000476667
-0.000567998
0.000408086
-0.00056186
0.000340312
-0.000583817
0.000271043
-0.000600218
0.000192456
-0.000554865
9.16806e-05
-0.000357243
-4.15474e-05
0.000116588
-0.000194274
0.00098161
-0.000325736
0.00225904
-0.0003572
0.00372867
-0.000218789
0.00464877
0.00329614
9.22168e-05
-0.00156774
7.9823e-05
-0.00239882
-6.32088e-05
-0.00217229
-0.000275174
-0.00164446
-0.000499679
-0.00115358
-0.000707743
-0.000799053
-0.000891507
-0.000579643
-0.0010528
-0.000465067
-0.00119553
-0.000424755
-0.0013232
-0.000433694
-0.0014394
-0.000467107
-0.00154881
-0.000490307
-0.00165513
-0.000448024
-0.00175352
-0.000258324
-0.00181508
0.00017868
-0.00177877
0.000945829
-0.00156784
0.00204861
-0.00112313
0.0032844
-0.000490359
0.00401631
0.0028059
-0.000158009
-0.00140957
-0.000599821
-0.00195661
-0.00114954
-0.00162206
-0.00166971
-0.00112375
-0.00210617
-0.000716582
-0.00245532
-0.000449387
-0.00273383
-0.000300636
-0.00296191
-0.000236495
-0.00315686
-0.000229319
-0.00333169
-0.000258381
-0.00349476
-0.000303562
-0.00364704
-0.00033756
-0.00377538
-0.000319203
-0.00384234
-0.000190888
-0.00377803
0.000114843
-0.00348675
0.000655024
-0.0028776
0.00143991
-0.00192205
0.00232923
-0.000776857
0.00287141
0.00202917
-0.000542236
-0.000867158
-0.00149924
-0.000999189
-0.00241214
-0.000708652
-0.00311912
-0.00041625
-0.00361984
-0.000215361
-0.00396575
-0.000102993
-0.00421275
-5.31706e-05
-0.00440616
-4.2635e-05
-0.00457837
-5.66665e-05
-0.00475027
-8.60638e-05
-0.00493121
-0.000122203
-0.00511476
-0.000153608
-0.00527047
-0.000163106
-0.00533488
-0.000126087
-0.0052139
-5.76187e-06
-0.00477456
0.000216061
-0.00390499
0.000570695
-0.00257947
0.00100402
-0.00102171
0.00131389
0.00100756
-0.000866965
-0.00186573
-0.00257388
-0.00298963
-0.00320452
-0.00330706
-0.0033598
-0.00340204
-0.00345832
-0.00354402
-0.00366587
-0.00381915
-0.00398195
-0.00410773
-0.00411321
-0.00389688
-0.00332594
-0.00232169
-0.00100764
)
;

boundaryField
{
    leftWall
    {
        type            calculated;
        value           nonuniform List<scalar> 10(0 6.77626e-21 0 0 0 0 0 0 4.33681e-19 0);
    }
    rightWall
    {
        type            calculated;
        value           nonuniform List<scalar> 10(-1.0842e-19 0 0 0 0 0 0 0 0 4.33681e-19);
    }
    topWall
    {
        type            calculated;
        value           uniform 0;
    }
    bottomWall
    {
        type            calculated;
        value           uniform 0;
    }
    frontAndBackPlanes
    {
        type            empty;
    }
}


// ************************************************************************* //
