/*--------------------------------*- C++ -*----------------------------------*\
| =========                 |                                                 |
| \\      /  F ield         | OpenFOAM: The Open Source CFD Toolbox           |
|  \\    /   O peration     | Version:  2506                                  |
|   \\  /    A nd           | Website:  www.openfoam.com                      |
|    \\/     M anipulation  |                                                 |
\*---------------------------------------------------------------------------*/
FoamFile
{
    version     2.0;
    format      ascii;
    arch        "LSB;label=32;scalar=64";
    class       volScalarField;
    location    "57";
    object      T;
}
// * * * * * * * * * * * * * * * * * * * * * * * * * * * * * * * * * * * * * //

dimensions      [0 0 0 1 0 0 0];

internalField   nonuniform List<scalar> 
200
(
273.152
273.154
273.157
273.158
273.159
273.16
273.16
273.16
273.161
273.161
273.161
273.162
273.163
273.164
273.167
273.175
273.197
273.26
273.424
273.803
273.154
273.163
273.169
273.174
273.176
273.178
273.178
273.178
273.179
273.179
273.179
273.18
273.18
273.18
273.18
273.185
273.204
273.266
273.44
273.828
273.16
273.178
273.192
273.202
273.207
273.21
273.211
273.21
273.21
273.21
273.209
273.208
273.207
273.204
273.201
273.203
273.223
273.291
273.476
273.861
273.167
273.199
273.224
273.24
273.248
273.252
273.253
273.252
273.25
273.249
273.247
273.244
273.239
273.232
273.226
273.226
273.247
273.324
273.518
273.891
273.176
273.224
273.261
273.284
273.296
273.301
273.301
273.299
273.296
273.294
273.29
273.285
273.277
273.266
273.255
273.254
273.28
273.365
273.566
273.92
273.186
273.253
273.303
273.334
273.349
273.354
273.354
273.352
273.35
273.347
273.344
273.337
273.327
273.312
273.298
273.3
273.334
273.428
273.625
273.946
273.197
273.285
273.349
273.388
273.406
273.412
273.414
273.415
273.415
273.416
273.414
273.41
273.401
273.39
273.383
273.39
273.426
273.516
273.691
273.971
273.212
273.322
273.398
273.442
273.465
273.478
273.487
273.494
273.502
273.508
273.513
273.515
273.514
273.512
273.512
273.522
273.555
273.629
273.772
274
273.228
273.357
273.443
273.496
273.528
273.551
273.569
273.586
273.601
273.616
273.629
273.641
273.651
273.661
273.67
273.682
273.71
273.765
273.868
274.036
273.238
273.376
273.467
273.525
273.564
273.593
273.618
273.641
273.663
273.685
273.706
273.728
273.749
273.771
273.793
273.817
273.847
273.891
273.962
274.072
)
;

boundaryField
{
    leftWall
    {
        type            fixedValue;
        value           uniform 273.15;
    }
    rightWall
    {
        type            customNeumannDirichletCoupledBoundary;
        refValue        nonuniform List<scalar> 10(274.126 274.127 274.129 274.131 274.133 274.135 274.137 274.139 274.141 274.142);
        refGradient     uniform 0;
        valueFraction   uniform 1;
        source          uniform 0;
        value           nonuniform List<scalar> 10(274.126 274.127 274.129 274.131 274.133 274.135 274.137 274.139 274.141 274.142);
        kappaMethod     fluidThermo;
    }
    topWall
    {
        type            zeroGradient;
    }
    bottomWall
    {
        type            zeroGradient;
    }
    frontAndBackPlanes
    {
        type            empty;
    }
}


// ************************************************************************* //
