/*--------------------------------*- C++ -*----------------------------------*\
| =========                 |                                                 |
| \\      /  F ield         | OpenFOAM: The Open Source CFD Toolbox           |
|  \\    /   O peration     | Version:  2506                                  |
|   \\  /    A nd           | Website:  www.openfoam.com                      |
|    \\/     M anipulation  |                                                 |
\*---------------------------------------------------------------------------*/
FoamFile
{
    version     2.0;
    format      ascii;
    arch        "LSB;label=32;scalar=64";
    class       volVectorField;
    location    "57";
    object      U;
}
// * * * * * * * * * * * * * * * * * * * * * * * * * * * * * * * * * * * * * //

dimensions      [0 1 -1 0 0 0 0];

internalField   nonuniform List<vector> 
200
(
(-4.51586e-05 -0.000369236 0)
(0.000571107 -0.000558375 0)
(0.00157701 -0.000515157 0)
(0.00259516 -0.000420197 0)
(0.00344767 -0.000321951 0)
(0.00415354 -0.00025136 0)
(0.00475786 -0.000225253 0)
(0.00532258 -0.000247442 0)
(0.00591425 -0.000316873 0)
(0.00659677 -0.000432945 0)
(0.0074284 -0.000596872 0)
(0.00845884 -0.000809038 0)
(0.00971973 -0.00106114 0)
(0.0112024 -0.00132067 0)
(0.0128104 -0.00150465 0)
(0.0142595 -0.00143181 0)
(0.0149177 -0.000733031 0)
(0.0138287 0.00119133 0)
(0.00999427 0.00448395 0)
(0.00303364 0.00640951 0)
(0.000203646 -0.00176151 0)
(0.00158444 -0.00330379 0)
(0.00339947 -0.00363085 0)
(0.00523888 -0.00335103 0)
(0.0068616 -0.00286459 0)
(0.00822462 -0.00242495 0)
(0.00937771 -0.00215744 0)
(0.0104015 -0.00210438 0)
(0.0113781 -0.0022644 0)
(0.012377 -0.00261622 0)
(0.013447 -0.00312512 0)
(0.0146061 -0.0037313 0)
(0.0158242 -0.00431751 0)
(0.0169911 -0.00465315 0)
(0.0178683 -0.00431553 0)
(0.0180361 -0.00260069 0)
(0.0168428 0.0015069 0)
(0.0135189 0.00881156 0)
(0.00797412 0.017784 0)
(0.00138964 0.0185278 0)
(0.000290975 -0.00374065 0)
(0.00204912 -0.0070735 0)
(0.00418159 -0.0078034 0)
(0.00626501 -0.00720416 0)
(0.00804071 -0.00615927 0)
(0.00947562 -0.00517759 0)
(0.010634 -0.00449451 0)
(0.0116013 -0.00417809 0)
(0.0124526 -0.00420807 0)
(0.0132418 -0.00452107 0)
(0.0139972 -0.00502286 0)
(0.0147152 -0.00556826 0)
(0.0153455 -0.00590826 0)
(0.0157652 -0.00560919 0)
(0.0157439 -0.00396655 0)
(0.0149088 1.98099e-05 0)
(0.0128294 0.00737502 0)
(0.00929915 0.018159 0)
(0.004762 0.0288322 0)
(0.000602207 0.0254363 0)
(0.000326905 -0.00610108 0)
(0.00219597 -0.0112731 0)
(0.00430172 -0.0121754 0)
(0.00622485 -0.0110154 0)
(0.00774355 -0.00922745 0)
(0.00887044 -0.00757978 0)
(0.00969984 -0.00639221 0)
(0.0103265 -0.00572893 0)
(0.01082 -0.00553034 0)
(0.0112233 -0.00568413 0)
(0.0115566 -0.00604314 0)
(0.0118172 -0.00639479 0)
(0.0119698 -0.00638726 0)
(0.0119252 -0.0054294 0)
(0.0115135 -0.00261751 0)
(0.0104523 0.00318499 0)
(0.00852685 0.0127802 0)
(0.00570912 0.0255242 0)
(0.00252673 0.0362788 0)
(0.000204689 0.0290721 0)
(0.00033891 -0.00852357 0)
(0.00208242 -0.015267 0)
(0.00383663 -0.0160086 0)
(0.00526129 -0.0140518 0)
(0.00622878 -0.0114149 0)
(0.00682067 -0.00908874 0)
(0.0071622 -0.00742507 0)
(0.00735037 -0.0064442 0)
(0.00744362 -0.0060294 0)
(0.00747325 -0.00602258 0)
(0.00745496 -0.00624142 0)
(0.00739138 -0.00643198 0)
(0.00726355 -0.00617131 0)
(0.00701475 -0.00475124 0)
(0.00653283 -0.00112306 0)
(0.00562421 0.00590877 0)
(0.0042132 0.0168927 0)
(0.00240081 0.0305135 0)
(0.000663063 0.0405621 0)
(-8.89776e-05 0.030493 0)
(0.000310786 -0.0107206 0)
(0.00161832 -0.0184572 0)
(0.00263241 -0.018637 0)
(0.00319894 -0.0157338 0)
(0.00335014 -0.0122977 0)
(0.00324412 -0.0094387 0)
(0.00301401 -0.00746089 0)
(0.00273526 -0.00630217 0)
(0.0024412 -0.00578397 0)
(0.00214601 -0.00571552 0)
(0.00185612 -0.00589482 0)
(0.00156779 -0.00603766 0)
(0.00125799 -0.00566262 0)
(0.000881647 -0.00397627 0)
(0.000380519 0.000146019 0)
(-0.000274557 0.00785479 0)
(-0.000951108 0.0193659 0)
(-0.00139677 0.0327929 0)
(-0.00130062 0.0415332 0)
(-0.000352155 0.029882 0)
(0.000207746 -0.0122247 0)
(0.00059076 -0.0199604 0)
(0.000345482 -0.019184 0)
(-0.00035586 -0.0153892 0)
(-0.00126568 -0.0114377 0)
(-0.00218432 -0.00838324 0)
(-0.00303138 -0.00638633 0)
(-0.0037876 -0.00527869 0)
(-0.00446073 -0.0048319 0)
(-0.00506462 -0.00483691 0)
(-0.00561459 -0.00507462 0)
(-0.00613129 -0.00522938 0)
(-0.00663911 -0.00478524 0)
(-0.00714348 -0.00295722 0)
(-0.00758305 0.00124707 0)
(-0.00772398 0.00866995 0)
(-0.0072438 0.0193372 0)
(-0.00584874 0.0313073 0)
(-0.00355314 0.0384746 0)
(-0.000673491 0.0269631 0)
(-4.66079e-05 -0.0122038 0)
(-0.00128803 -0.0184651 0)
(-0.00336319 -0.0165246 0)
(-0.00561876 -0.0123541 0)
(-0.00764469 -0.00854412 0)
(-0.00932147 -0.00583894 0)
(-0.0106795 -0.0042094 0)
(-0.011795 -0.00341114 0)
(-0.0127441 -0.00320197 0)
(-0.0135897 -0.00337826 0)
(-0.0143787 -0.00372805 0)
(-0.0151362 -0.00395477 0)
(-0.0158445 -0.00360771 0)
(-0.0164021 -0.00205796 0)
(-0.0165599 0.00142319 0)
(-0.015897 0.00741997 0)
(-0.0139785 0.0159218 0)
(-0.010538 0.0253549 0)
(-0.00592379 0.0308678 0)
(-0.00102381 0.0215114 0)
(-0.000582327 -0.00954264 0)
(-0.00405101 -0.0128269 0)
(-0.00800707 -0.0102431 0)
(-0.0114704 -0.0067389 0)
(-0.0140525 -0.004007 0)
(-0.0158683 -0.00231127 0)
(-0.0171602 -0.00145426 0)
(-0.0181453 -0.00117766 0)
(-0.018986 -0.00127975 0)
(-0.0197956 -0.00161284 0)
(-0.0206416 -0.00203791 0)
(-0.0215355 -0.00237125 0)
(-0.022404 -0.00234331 0)
(-0.0230506 -0.00158572 0)
(-0.0231112 0.000339447 0)
(-0.0220152 0.00385055 0)
(-0.0191968 0.00905152 0)
(-0.014333 0.0150575 0)
(-0.00794362 0.0188985 0)
(-0.0013685 0.0135922 0)
(-0.00148349 -0.00320408 0)
(-0.00563193 -0.00337949 0)
(-0.00922649 -0.00209842 0)
(-0.0116834 -0.000963384 0)
(-0.0130633 -0.000282934 0)
(-0.0137615 3.73946e-05 0)
(-0.0141183 0.000134335 0)
(-0.0143543 0.000104221 0)
(-0.0146054 1.4362e-06 0)
(-0.014958 -0.000146821 0)
(-0.015463 -0.000323809 0)
(-0.0161301 -0.000506922 0)
(-0.0169075 -0.000653957 0)
(-0.0176477 -0.000692319 0)
(-0.0180646 -0.000505423 0)
(-0.017727 8.63897e-05 0)
(-0.0160487 0.00126389 0)
(-0.0125352 0.00297355 0)
(-0.00741989 0.00451506 0)
(-0.001798 0.00387579 0)
)
;

boundaryField
{
    leftWall
    {
        type            fixedValue;
        value           uniform (0 0 0);
    }
    rightWall
    {
        type            fixedValue;
        value           uniform (0 0 0);
    }
    topWall
    {
        type            fixedValue;
        value           uniform (0 0 0);
    }
    bottomWall
    {
        type            fixedValue;
        value           uniform (0 0 0);
    }
    frontAndBackPlanes
    {
        type            empty;
    }
}


// ************************************************************************* //
