/*--------------------------------*- C++ -*----------------------------------*\
| =========                 |                                                 |
| \\      /  F ield         | OpenFOAM: The Open Source CFD Toolbox           |
|  \\    /   O peration     | Version:  2506                                  |
|   \\  /    A nd           | Website:  www.openfoam.com                      |
|    \\/     M anipulation  |                                                 |
\*---------------------------------------------------------------------------*/
FoamFile
{
    version     2.0;
    format      ascii;
    arch        "LSB;label=32;scalar=64";
    class       volScalarField;
    location    "21.2";
    object      p_rgh;
}
// * * * * * * * * * * * * * * * * * * * * * * * * * * * * * * * * * * * * * //

dimensions      [1 -1 -2 0 0 0 0];

internalField   nonuniform List<scalar> 
200
(
100000
100000
100000
100000
100000
100000
100000
100000
100000
100000
100000
99999.9
99999.9
99999.8
99999.7
99999.6
99999.4
99999.2
99998.8
99998.1
100000
100000
100000
100000
100000
100000
100000
100000
100000
100000
100000
99999.9
99999.9
99999.8
99999.8
99999.7
99999.6
99999.3
99998.6
99997
100000
100000
100000
100000
100000
100000
100000
100000
100000
100000
100000
100000
99999.9
99999.9
99999.8
99999.8
99999.6
99999.1
99997.9
99995.3
100000
100000
100000
100000
100000
100000
100000
100000
100000
100000
100000
100000
99999.9
99999.9
99999.9
99999.8
99999.5
99998.8
99997
99993.2
100000
100000
100000
100000
100000
100000
100000
100000
100000
100000
100000
99999.9
99999.9
99999.9
99999.8
99999.7
99999.3
99998.3
99995.8
99991
100000
100000
100000
100000
100000
100000
100000
100000
100000
99999.9
99999.8
99999.7
99999.7
99999.7
99999.7
99999.5
99998.9
99997.4
99994.2
99988.7
100000
100000
100001
100001
100001
100001
100000
100000
99999.7
99999.4
99999.2
99999.1
99999.1
99999.1
99999
99998.6
99997.8
99995.9
99992.3
99986.4
100000
100001
100001
100001
100001
100001
100000
99999.5
99998.9
99998.3
99997.8
99997.5
99997.4
99997.3
99997.1
99996.6
99995.6
99993.6
99990.1
99984.3
100000
100001
100001
100001
100001
100000
99999.7
99998.7
99997.6
99996.5
99995.5
99994.9
99994.4
99994
99993.7
99993.2
99992.2
99990.5
99987.4
99982.4
100000
100001
100001
100001
100001
100001
99999.9
99998.6
99997.1
99995.6
99994.1
99992.8
99991.8
99990.9
99990.2
99989.5
99988.5
99987.1
99984.7
99980.8
)
;

boundaryField
{
    leftWall
    {
        type            fixedFluxPressure;
        gradient        nonuniform List<scalar> 10(-0.0249392 -0.132224 -0.379814 -0.785886 -1.37976 -2.20983 -3.36233 -4.90663 -6.56738 -7.73005);
        value           nonuniform List<scalar> 10(100000 100000 100000 100000 100000 100000 100000 100000 100000 100000);
    }
    rightWall
    {
        type            fixedFluxPressure;
        gradient        nonuniform List<scalar> 10(-17.9066 -51.1256 -79.1808 -102.539 -120.464 -131.317 -138.95 -139.311 -127.639 -104.216);
        value           nonuniform List<scalar> 10(99997.7 99995.7 99993.3 99990.7 99988 99985.4 99983 99980.8 99979.2 99978.2);
    }
    topWall
    {
        type            fixedFluxPressure;
        gradient        uniform 0;
        value           nonuniform List<scalar> 
20
(
100000
100000
100000
100000
100000
100000
100000
100000
100000
100000
100000
99999.9
99999.9
99999.8
99999.7
99999.6
99999.4
99999.2
99998.8
99998.1
)
;
    }
    bottomWall
    {
        type            fixedFluxPressure;
        gradient        uniform 0;
        value           nonuniform List<scalar> 
20
(
100000
100001
100001
100001
100001
100001
99999.9
99998.6
99997.1
99995.6
99994.1
99992.8
99991.8
99990.9
99990.2
99989.5
99988.5
99987.1
99984.7
99980.8
)
;
    }
    frontAndBackPlanes
    {
        type            empty;
    }
}


// ************************************************************************* //
