/*--------------------------------*- C++ -*----------------------------------*\
| =========                 |                                                 |
| \\      /  F ield         | OpenFOAM: The Open Source CFD Toolbox           |
|  \\    /   O peration     | Version:  2506                                  |
|   \\  /    A nd           | Website:  www.openfoam.com                      |
|    \\/     M anipulation  |                                                 |
\*---------------------------------------------------------------------------*/
FoamFile
{
    version     2.0;
    format      ascii;
    arch        "LSB;label=32;scalar=64";
    class       surfaceScalarField;
    location    "41";
    object      phi;
}
// * * * * * * * * * * * * * * * * * * * * * * * * * * * * * * * * * * * * * //

dimensions      [1 0 -1 0 0 0 0];

oriented        oriented;

internalField   nonuniform List<scalar> 
370
(
-2.37327e-05
-6.8768e-05
0.000132444
-0.000156158
0.000343464
-0.00021099
0.000579789
-0.000236284
0.000817035
-0.000237198
0.00104265
-0.000225565
0.00125489
-0.000212182
0.0014596
-0.000204656
0.00166725
-0.00020759
0.00189038
-0.000223072
0.0021413
-0.000250868
0.00242935
-0.000287988
0.00275618
-0.000326772
0.00310829
-0.000352056
0.00344399
-0.000335644
0.00366923
-0.000225178
0.00359845
7.08382e-05
0.00300511
0.000593412
0.0016538
0.00135138
0.00165384
0.000133273
-0.000202023
0.000463698
-0.000486528
0.000898377
-0.000645581
0.0013646
-0.000702392
0.0018185
-0.000690962
0.00223899
-0.000645923
0.0026217
-0.000594745
0.00297267
-0.000555474
0.00330274
-0.000537515
0.00362279
-0.000542975
0.00393922
-0.000567151
0.00424882
-0.000597434
0.0045324
-0.000610205
0.00474601
-0.000565522
0.00481
-0.000399502
0.00460414
-1.9191e-05
0.00397703
0.00069807
0.00277469
0.0017959
0.00113974
0.00298648
0.00279367
0.000215081
-0.000417061
0.000668833
-0.000940148
0.00121876
-0.0011953
0.00176981
-0.00125318
0.00227248
-0.00119334
0.00270973
-0.00108287
0.00308375
-0.000968466
0.00340568
-0.00087711
0.00368846
-0.000819998
0.00394186
-0.000796073
0.00416839
-0.000793391
0.0043589
-0.000787654
0.00448698
-0.000738015
0.00450306
-0.000581336
0.00433173
-0.000227935
0.00387652
0.00043625
0.00306943
0.00150538
0.00192261
0.00294294
0.000687405
0.00422191
0.0034812
0.000259776
-0.000676751
0.00076716
-0.00144728
0.00133274
-0.00176049
0.00185014
-0.00177012
0.00227676
-0.00161947
0.00260952
-0.00141514
0.00286429
-0.00122275
0.00306217
-0.00107452
0.00322187
-0.000979237
0.00335579
-0.000929544
0.00346759
-0.000904751
0.00354931
-0.000868946
0.00357731
-0.000765597
0.00350793
-0.000511572
0.00328243
-2.08835e-06
0.0028305
0.000888493
0.00212673
0.00220946
0.00123341
0.00383658
0.000385106
0.00507051
0.00386646
0.000273666
-0.000950276
0.00075433
-0.00192753
0.00123112
-0.00223668
0.00160672
-0.00214504
0.00186008
-0.00187213
0.00201054
-0.00156493
0.00209066
-0.00130223
0.00213105
-0.00111432
0.00215435
-0.00100196
0.00217388
-0.000948493
0.00219355
-0.000923852
0.002207
-0.000881837
0.00219526
-0.000753306
0.00212446
-0.000440253
0.00194311
0.000179721
0.00161587
0.00121615
0.00113216
0.00269356
0.000571892
0.00439725
0.000125667
0.00551708
0.0039923
0.000238852
-0.00118892
0.000587116
-0.00227522
0.00085458
-0.00250335
0.000982797
-0.00227239
0.000986971
-0.00187547
0.000912028
-0.00148922
0.000801886
-0.00119138
0.000688193
-0.00099995
0.000589303
-0.000902406
0.000512943
-0.000871461
0.000458633
-0.000868847
0.000418479
-0.000840968
0.000377055
-0.000711163
0.000312562
-0.000375074
0.000203512
0.00028937
4.70898e-05
0.00137311
-0.000123576
0.00286475
-0.000228246
0.0045024
-0.000173155
0.00546237
0.0038193
0.000124991
-0.00131364
0.000193517
-0.00234301
0.000109902
-0.00241876
-0.000105293
-0.0020562
-0.000393644
-0.00158622
-0.000699562
-0.0011825
-0.00098671
-0.000903495
-0.00123793
-0.000748008
-0.0014491
-0.000690496
-0.00162312
-0.000696656
-0.00176602
-0.000725123
-0.0018842
-0.000721924
-0.00198086
-0.000613643
-0.0020495
-0.00030559
-0.00206144
0.000302072
-0.00196554
0.0012779
-0.00169525
0.00259508
-0.00119743
0.00400511
-0.000519993
0.00478532
0.00329945
-0.000115692
-0.00119761
-0.000499733
-0.00195808
-0.00105254
-0.00186486
-0.00165177
-0.00145592
-0.00221358
-0.0010235
-0.00270313
-0.00069215
-0.00311677
-0.00048911
-0.00346633
-0.000397695
-0.00376818
-0.000387871
-0.00403649
-0.00042755
-0.0042786
-0.000482184
-0.00448995
-0.000509718
-0.00464695
-0.00045579
-0.00469882
-0.000252888
-0.00456592
0.000169984
-0.00415099
0.000863696
-0.00337389
0.00181861
-0.0022241
0.00285585
-0.000889906
0.0034515
0.00240969
-0.000478654
-0.000718527
-0.00141339
-0.00102232
-0.00241097
-0.000866093
-0.003271
-0.000594808
-0.00393848
-0.000355089
-0.00443597
-0.000193877
-0.00481406
-0.000110321
-0.00512462
-8.64745e-05
-0.00540864
-0.000103206
-0.00569143
-0.000144117
-0.00597997
-0.000193006
-0.00625791
-0.000231123
-0.00647802
-0.000235026
-0.00655513
-0.000175104
-0.00637616
-8.30939e-06
-0.0057915
0.000279655
-0.00469118
0.000718848
-0.00307019
0.00123531
-0.00120624
0.00158788
0.00120359
-0.000718026
-0.0017392
-0.00260396
-0.00319753
-0.00355158
-0.0037446
-0.00385421
-0.00394008
-0.00404275
-0.00418638
-0.00437893
-0.00460961
-0.0048442
-0.00501887
-0.00502675
-0.00474668
-0.00402745
-0.00279181
-0.0012037
)
;

boundaryField
{
    leftWall
    {
        type            calculated;
        value           uniform 0;
    }
    rightWall
    {
        type            calculated;
        value           uniform 0;
    }
    topWall
    {
        type            calculated;
        value           uniform 0;
    }
    bottomWall
    {
        type            calculated;
        value           uniform 0;
    }
    frontAndBackPlanes
    {
        type            empty;
    }
}


// ************************************************************************* //
