/*--------------------------------*- C++ -*----------------------------------*\
| =========                 |                                                 |
| \\      /  F ield         | OpenFOAM: The Open Source CFD Toolbox           |
|  \\    /   O peration     | Version:  2506                                  |
|   \\  /    A nd           | Website:  www.openfoam.com                      |
|    \\/     M anipulation  |                                                 |
\*---------------------------------------------------------------------------*/
FoamFile
{
    version     2.0;
    format      ascii;
    arch        "LSB;label=32;scalar=64";
    class       surfaceScalarField;
    location    "27";
    object      phi;
}
// * * * * * * * * * * * * * * * * * * * * * * * * * * * * * * * * * * * * * //

dimensions      [1 0 -1 0 0 0 0];

oriented        oriented;

internalField   nonuniform List<scalar> 
370
(
-6.6689e-05
-3.95703e-05
4.90526e-05
-0.000115742
0.000244049
-0.000194997
0.000509851
-0.000265803
0.000825067
-0.000315218
0.00116598
-0.000340922
0.00151193
-0.000345952
0.00184809
-0.000336167
0.00216672
-0.000318631
0.00246679
-0.000300083
0.00275245
-0.000285667
0.00303022
-0.000277783
0.00330396
-0.000273745
0.00356754
-0.000263597
0.00379128
-0.000223744
0.00389288
-0.000101602
0.00372553
0.000167359
0.0030596
0.000665952
0.00167035
0.00138929
0.00167038
8.12653e-05
-0.000120832
0.000346165
-0.00038063
0.00076699
-0.000615804
0.00130175
-0.000800537
0.00190629
-0.000919737
0.00253751
-0.000972114
0.00315852
-0.000966927
0.00374188
-0.000919496
0.00426992
-0.000846642
0.00473256
-0.00076269
0.00512321
-0.000676292
0.00543315
-0.000587698
0.005645
-0.00048558
0.00572366
-0.00034224
0.0056055
-0.000105575
0.0051955
0.000308398
0.00435809
0.00100479
0.00297948
0.0020446
0.00120996
0.00315887
0.00288038
0.000152763
-0.000273584
0.000542697
-0.000770534
0.00110671
-0.00117977
0.00177873
-0.0014725
0.00249703
-0.00163795
0.00320847
-0.00168346
0.0038724
-0.00163075
0.00446194
-0.00150892
0.00496198
-0.00134656
0.00536471
-0.0011653
0.00566358
-0.000975057
0.00584655
-0.000770567
0.00588915
-0.000528106
0.00574877
-0.000201788
0.00536256
0.000280674
0.00466287
0.00100813
0.00360233
0.00206536
0.00222054
0.00342644
0.000792226
0.00458726
0.00367267
0.000192458
-0.000466024
0.000652895
-0.00123092
0.00127937
-0.00180616
0.00198337
-0.00217636
0.00269017
-0.00234457
0.00334248
-0.00233553
0.00390369
-0.00219169
0.00435713
-0.00196206
0.00470104
-0.00169019
0.00494115
-0.00140514
0.00508242
-0.00111608
0.0051211
-0.000809031
0.00503786
-0.000444682
0.0047966
3.96155e-05
0.0043458
0.000731584
0.00364584
0.00170818
0.00268698
0.0030243
0.00155028
0.00456323
0.00049579
0.00564187
0.00416853
0.000208279
-0.000674275
0.000669988
-0.00169254
0.00125826
-0.00239428
0.00187356
-0.00279141
0.00243864
-0.00290928
0.0029019
-0.00279829
0.00324066
-0.00252989
0.00345798
-0.0021788
0.00357355
-0.0018052
0.00361259
-0.00144368
0.00359534
-0.0010984
0.00352831
-0.000741637
0.0033989
-0.000314969
0.00317258
0.000266178
0.0028133
0.00109105
0.00228831
0.00223331
0.00160369
0.00370905
0.000844273
0.00532279
0.000218538
0.00626776
0.00438716
0.000178831
-0.000853067
0.000531886
-0.00204547
0.000934989
-0.00279712
0.00130082
-0.00315675
0.00156748
-0.00317519
0.00170326
-0.00293313
0.0017116
-0.0025372
0.00162252
-0.00208873
0.00147899
-0.0016608
0.00132221
-0.00128617
0.0011801
-0.0009557
0.00106067
-0.000621735
0.000950518
-0.000204435
0.000821813
0.000395195
0.00064788
0.00126524
0.000416305
0.0024651
0.000152722
0.00397285
-6.20769e-05
0.00553784
-0.000116243
0.00632212
0.004271
7.00355e-05
-0.000923047
0.000150753
-0.00212599
0.000171203
-0.0028171
8.96906e-05
-0.00307435
-0.000112346
-0.00297183
-0.000424948
-0.00261892
-0.000811646
-0.00214888
-0.00122036
-0.0016786
-0.00160044
-0.00127959
-0.00191509
-0.000970669
-0.00214607
-0.000724075
-0.00229144
-0.000475827
-0.00235937
-0.000136019
-0.00234976
0.000386017
-0.00225926
0.00117512
-0.00206843
0.00227464
-0.00173525
0.00364
-0.00121002
0.00501292
-0.000523821
0.00563615
0.00374726
-0.000146153
-0.000776811
-0.000525669
-0.00174615
-0.00108401
-0.00225795
-0.00177214
-0.00238473
-0.00253695
-0.00220492
-0.0033175
-0.00183604
-0.00405563
-0.00140859
-0.00470718
-0.00102529
-0.00524676
-0.000738665
-0.00566515
-0.000551254
-0.00596077
-0.000427617
-0.00612819
-0.000307664
-0.00614764
-0.00011589
-0.00598194
0.00022093
-0.00557982
0.000773574
-0.00488555
0.00158087
-0.00384954
0.00260443
-0.00247926
0.003643
-0.000974957
0.0041321
0.00277239
-0.000396261
-0.00038044
-0.00128119
-0.00086074
-0.00243369
-0.00110425
-0.00368195
-0.00113432
-0.00488634
-0.000997671
-0.00594892
-0.000770381
-0.00682244
-0.000532271
-0.00750574
-0.000339671
-0.0080265
-0.000216088
-0.00841941
-0.000156916
-0.00870621
-0.000139669
-0.00888037
-0.000132523
-0.00889618
-9.92146e-05
-0.00868469
1.02447e-05
-0.00813299
0.000222588
-0.00713273
0.000581229
-0.00560347
0.00107569
-0.00357548
0.00161542
-0.00137456
0.00193146
0.00139795
-0.000380345
-0.00124062
-0.0023436
-0.00347562
-0.00447013
-0.00523699
-0.00576587
-0.00610254
-0.00631614
-0.00647105
-0.00660911
-0.00674033
-0.00683846
-0.00682728
-0.00660389
-0.00602198
-0.00494572
-0.00332986
-0.00139809
)
;

boundaryField
{
    leftWall
    {
        type            calculated;
        value           uniform 0;
    }
    rightWall
    {
        type            calculated;
        value           uniform 0;
    }
    topWall
    {
        type            calculated;
        value           uniform 0;
    }
    bottomWall
    {
        type            calculated;
        value           uniform 0;
    }
    frontAndBackPlanes
    {
        type            empty;
    }
}


// ************************************************************************* //
