/*--------------------------------*- C++ -*----------------------------------*\
| =========                 |                                                 |
| \\      /  F ield         | OpenFOAM: The Open Source CFD Toolbox           |
|  \\    /   O peration     | Version:  2506                                  |
|   \\  /    A nd           | Website:  www.openfoam.com                      |
|    \\/     M anipulation  |                                                 |
\*---------------------------------------------------------------------------*/
FoamFile
{
    version     2.0;
    format      ascii;
    arch        "LSB;label=32;scalar=64";
    class       volScalarField;
    location    "12";
    object      p_rgh;
}
// * * * * * * * * * * * * * * * * * * * * * * * * * * * * * * * * * * * * * //

dimensions      [1 -1 -2 0 0 0 0];

internalField   nonuniform List<scalar> 
200
(
100000
100000
100000
100000
100000
100000
100000
100000
100000
100000
100000
100000
99999.9
99999.8
99999.7
99999.6
99999.4
99999.2
99998.8
99998.2
100000
100000
100000
100000
100000
100000
100000
100000
100000
100000
100000
100000
99999.9
99999.9
99999.8
99999.7
99999.6
99999.3
99998.6
99997
100000
100000
100000
100000
100000
100000
100000
100000
100000
100000
100000
100000
100000
99999.9
99999.9
99999.8
99999.6
99999.1
99997.9
99995.2
100000
100000
100000
100000
100000
100000
100000
100000
100000
100000
100000
100000
100000
100000
99999.9
99999.8
99999.5
99998.7
99996.9
99993.2
100000
100000
100000
100000
100000
100000
100000
100000
100000
100000
100000
100000
100000
100000
100000
99999.8
99999.4
99998.2
99995.7
99991
100000
100000
100000
100000
100000
100000
100000
100000
100000
100000
100000
100000
100000
100000
100000
99999.8
99999.1
99997.6
99994.3
99988.8
100000
100000
100000
100001
100001
100001
100001
100001
100001
100001
100001
100000
100000
100000
100000
99999.5
99998.6
99996.6
99992.8
99986.6
100000
100000
100001
100001
100001
100001
100001
100001
100001
100001
100001
100001
100000
99999.9
99999.4
99998.6
99997.3
99995
99991
99984.6
100000
100000
100001
100001
100001
100001
100001
100001
100001
100001
100001
100001
99999.9
99999
99997.9
99996.6
99995
99992.7
99988.9
99982.7
100000
100000
100001
100001
100001
100001
100001
100001
100001
100001
100001
100001
99999.7
99998.4
99996.7
99994.8
99992.7
99990.2
99986.7
99981.3
)
;

boundaryField
{
    leftWall
    {
        type            fixedFluxPressure;
        gradient        nonuniform List<scalar> 10(-0.0178985 -0.168859 -0.574085 -1.2435 -2.18655 -3.43056 -4.97701 -6.77621 -8.6297 -10.2857);
        value           nonuniform List<scalar> 10(100000 100000 100000 100000 100000 100000 100000 99999.9 99999.9 99999.8);
    }
    rightWall
    {
        type            fixedFluxPressure;
        gradient        nonuniform List<scalar> 10(-18.1989 -50.9931 -77.7143 -99.9753 -118.904 -134.133 -149.102 -161.216 -165.642 -160.568);
        value           nonuniform List<scalar> 10(99997.7 99995.7 99993.3 99990.7 99988 99985.4 99982.9 99980.6 99978.6 99977.3);
    }
    topWall
    {
        type            fixedFluxPressure;
        gradient        uniform 0;
        value           nonuniform List<scalar> 
20
(
100000
100000
100000
100000
100000
100000
100000
100000
100000
100000
100000
100000
99999.9
99999.8
99999.7
99999.6
99999.4
99999.2
99998.8
99998.2
)
;
    }
    bottomWall
    {
        type            fixedFluxPressure;
        gradient        uniform 0;
        value           nonuniform List<scalar> 
20
(
100000
100000
100001
100001
100001
100001
100001
100001
100001
100001
100001
100001
99999.7
99998.4
99996.7
99994.8
99992.7
99990.2
99986.7
99981.3
)
;
    }
    frontAndBackPlanes
    {
        type            empty;
    }
}


// ************************************************************************* //
