/*--------------------------------*- C++ -*----------------------------------*\
| =========                 |                                                 |
| \\      /  F ield         | OpenFOAM: The Open Source CFD Toolbox           |
|  \\    /   O peration     | Version:  2506                                  |
|   \\  /    A nd           | Website:  www.openfoam.com                      |
|    \\/     M anipulation  |                                                 |
\*---------------------------------------------------------------------------*/
FoamFile
{
    version     2.0;
    format      ascii;
    arch        "LSB;label=32;scalar=64";
    class       surfaceScalarField;
    location    "64.8";
    object      phi;
}
// * * * * * * * * * * * * * * * * * * * * * * * * * * * * * * * * * * * * * //

dimensions      [1 0 -1 0 0 0 0];

oriented        oriented;

internalField   nonuniform List<scalar> 
370
(
8.50244e-05
-0.000153775
0.000349337
-0.000264243
0.000619884
-0.000270444
0.000852107
-0.000232098
0.00103596
-0.000183715
0.00118106
-0.000144957
0.00130497
-0.000123757
0.00142634
-0.000121208
0.00156206
-0.000135556
0.00172665
-0.000164426
0.00193233
-0.000205505
0.00218826
-0.000255757
0.00249718
-0.000308728
0.00284767
-0.0003503
0.00319951
-0.00035164
0.00345822
-0.000258508
0.00342694
3.14797e-05
0.00288441
0.000542727
0.00159118
0.00129342
0.00159129
0.000239243
-0.000392975
0.00069124
-0.000716121
0.00117674
-0.000755775
0.00160908
-0.000664226
0.00196444
-0.000538858
0.00225105
-0.000431346
0.00249007
-0.000362541
0.00270483
-0.000335745
0.00291558
-0.000346071
0.0031371
-0.000385712
0.00337739
-0.000445554
0.00363525
-0.000513373
0.00389532
-0.000568542
0.0041186
-0.000573325
0.00422907
-0.000461845
0.00410322
-0.000132389
0.00359356
0.000541396
0.00252677
0.00160977
0.00103823
0.00278218
0.00262964
0.000295946
-0.000688853
0.000816442
-0.00123643
0.00135648
-0.00129555
0.00182535
-0.00113279
0.00220126
-0.000914443
0.00249517
-0.000724919
0.0027289
-0.000595939
0.00292401
-0.000530517
0.00309704
-0.00051878
0.00325812
-0.000546459
0.0034102
-0.000597303
0.00354733
-0.000650159
0.00365026
-0.000671132
0.00367932
-0.000602042
0.00356745
-0.000349627
0.00322277
0.000212633
0.00256875
0.00119575
0.00160774
0.00257109
0.000564177
0.00382601
0.00319394
0.000306619
-0.000995384
0.00081655
-0.00174612
0.00131347
-0.00179212
0.00171657
-0.00153549
0.00201681
-0.00121427
0.00223349
-0.000941167
0.00239094
-0.000752968
0.00250894
-0.000648103
0.00260044
-0.00060987
0.00267235
-0.000617963
0.00272649
-0.000651037
0.0027588
-0.000682048
0.0027557
-0.000667623
0.00268838
-0.000534293
0.00250911
-0.000169941
0.00215981
0.000562349
0.0016106
0.00174536
0.000911404
0.00327066
0.000262655
0.00447505
0.00345673
0.000285423
-0.0012807
0.000715284
-0.00217569
0.00108927
-0.0021657
0.00135319
-0.00179895
0.00151903
-0.00137963
0.00161614
-0.00103779
0.00166989
-0.000806244
0.00169651
-0.000674247
0.00170475
-0.000617649
0.00169913
-0.000611882
0.00168168
-0.000633125
0.00165109
-0.000650998
0.00159936
-0.000615424
0.00150746
-0.000441916
0.00134307
-5.07017e-06
0.00107503
0.000830865
0.00070469
0.00211615
0.000304825
0.00367093
2.97264e-05
0.00475047
0.00348659
0.000222334
-0.00150292
0.00048816
-0.0024412
0.000652268
-0.00232936
0.00070863
-0.0018548
0.000695659
-0.00136614
0.000648448
-0.000990068
0.000587397
-0.000744693
0.000521336
-0.000607695
0.000453573
-0.000549401
0.000385864
-0.00054369
0.000318967
-0.000565743
0.0002506
-0.000582141
0.000173008
-0.000537333
7.34867e-05
-0.000341883
-5.76708e-05
0.000126617
-0.00020773
0.000981445
-0.000335632
0.00224454
-0.000362898
0.00369863
-0.000220621
0.00460852
0.0032661
8.86865e-05
-0.00159147
6.84525e-05
-0.0024206
-8.21935e-05
-0.00217822
-0.000299112
-0.00163736
-0.000525389
-0.00113934
-0.00073281
-0.000782135
-0.000914526
-0.000562476
-0.00107313
-0.0004486
-0.00121298
-0.000409065
-0.00133772
-0.000418462
-0.001451
-0.000451985
-0.00155739
-0.000475262
-0.00166052
-0.000433705
-0.00175548
-0.000246414
-0.00181348
0.000185134
-0.00177462
0.000943096
-0.00156277
0.00203318
-0.00111886
0.00325514
-0.000488241
0.00397821
0.00277799
-0.000163225
-0.00142809
-0.000613832
-0.00196961
-0.0011698
-0.00162177
-0.00169205
-0.00111458
-0.00212714
-0.000703749
-0.00247271
-0.000436068
-0.00274652
-0.000288171
-0.00296951
-0.000225134
-0.00315932
-0.000218794
-0.00332905
-0.000248273
-0.00348703
-0.00029354
-0.00363423
-0.000327614
-0.0037576
-0.00030987
-0.00382011
-0.000183445
-0.00375281
0.000118289
-0.00346128
0.000652019
-0.00285545
0.00142778
-0.00190681
0.00230687
-0.000770561
0.00284224
0.00200754
-0.00054965
-0.000878267
-0.00151502
-0.00100383
-0.0024306
-0.000705697
-0.00313499
-0.000409686
-0.00363009
-0.000208156
-0.00396917
-9.65208e-05
-0.00420914
-4.77445e-05
-0.00439581
-3.80231e-05
-0.00456165
-5.25329e-05
-0.00472738
-8.21414e-05
-0.00490224
-0.000118283
-0.00507983
-0.000149635
-0.00523004
-0.000159279
-0.00529017
-0.000122949
-0.00516781
-3.70023e-06
-0.00473042
0.000214979
-0.0038678
0.000565514
-0.00255436
0.000993736
-0.00101157
0.00129968
0.000996065
-0.000878081
-0.0018815
-0.00258672
-0.00299592
-0.00320361
-0.00329969
-0.00334702
-0.00338465
-0.00343681
-0.00351859
-0.00363654
-0.00378585
-0.00394483
-0.00406749
-0.00407092
-0.00385568
-0.00328993
-0.00229598
-0.000996136
)
;

boundaryField
{
    leftWall
    {
        type            calculated;
        value           nonuniform List<scalar> 10(-8.47033e-22 0 0 0 0 0 0 0 0 0);
    }
    rightWall
    {
        type            calculated;
        value           nonuniform List<scalar> 10(0 0 0 -4.33681e-19 0 0 0 0 -4.33681e-19 0);
    }
    topWall
    {
        type            calculated;
        value           uniform 0;
    }
    bottomWall
    {
        type            calculated;
        value           uniform 0;
    }
    frontAndBackPlanes
    {
        type            empty;
    }
}


// ************************************************************************* //
