/*--------------------------------*- C++ -*----------------------------------*\
| =========                 |                                                 |
| \\      /  F ield         | OpenFOAM: The Open Source CFD Toolbox           |
|  \\    /   O peration     | Version:  2506                                  |
|   \\  /    A nd           | Website:  www.openfoam.com                      |
|    \\/     M anipulation  |                                                 |
\*---------------------------------------------------------------------------*/
FoamFile
{
    version     2.0;
    format      ascii;
    arch        "LSB;label=32;scalar=64";
    class       volScalarField;
    location    "64.8";
    object      T;
}
// * * * * * * * * * * * * * * * * * * * * * * * * * * * * * * * * * * * * * //

dimensions      [0 0 0 1 0 0 0];

internalField   nonuniform List<scalar> 
200
(
273.153
273.158
273.163
273.166
273.168
273.169
273.169
273.17
273.17
273.171
273.172
273.173
273.174
273.176
273.179
273.187
273.21
273.272
273.435
273.809
273.157
273.17
273.18
273.187
273.19
273.192
273.193
273.193
273.193
273.194
273.194
273.195
273.196
273.196
273.197
273.201
273.22
273.283
273.454
273.836
273.164
273.19
273.21
273.222
273.229
273.231
273.232
273.232
273.231
273.231
273.231
273.231
273.229
273.227
273.224
273.226
273.245
273.312
273.493
273.869
273.173
273.215
273.247
273.266
273.276
273.28
273.281
273.279
273.278
273.276
273.274
273.272
273.267
273.261
273.254
273.254
273.274
273.348
273.538
273.9
273.183
273.244
273.289
273.316
273.329
273.333
273.333
273.331
273.328
273.325
273.322
273.317
273.31
273.299
273.288
273.286
273.31
273.393
273.587
273.93
273.194
273.275
273.334
273.369
273.384
273.389
273.388
273.386
273.383
273.381
273.378
273.372
273.362
273.348
273.335
273.336
273.368
273.458
273.647
273.955
273.207
273.31
273.383
273.424
273.442
273.447
273.449
273.449
273.45
273.45
273.449
273.444
273.436
273.426
273.42
273.426
273.46
273.545
273.713
273.98
273.222
273.349
273.433
273.478
273.501
273.513
273.521
273.528
273.535
273.541
273.545
273.547
273.547
273.545
273.545
273.554
273.585
273.656
273.791
274.008
273.24
273.385
273.478
273.531
273.562
273.583
273.601
273.616
273.631
273.644
273.657
273.668
273.678
273.687
273.696
273.708
273.734
273.787
273.884
274.043
273.251
273.405
273.501
273.559
273.596
273.623
273.646
273.668
273.688
273.709
273.729
273.75
273.77
273.791
273.812
273.835
273.864
273.906
273.973
274.077
)
;

boundaryField
{
    leftWall
    {
        type            fixedValue;
        value           uniform 273.15;
    }
    rightWall
    {
        type            customNeumannDirichletCoupledBoundary;
        refValue        nonuniform List<scalar> 10(274.126 274.128 274.13 274.132 274.134 274.136 274.137 274.139 274.141 274.143);
        refGradient     uniform 0;
        valueFraction   uniform 1;
        source          uniform 0;
        value           nonuniform List<scalar> 10(274.126 274.128 274.13 274.132 274.134 274.136 274.137 274.139 274.141 274.143);
        kappaMethod     fluidThermo;
    }
    topWall
    {
        type            zeroGradient;
    }
    bottomWall
    {
        type            zeroGradient;
    }
    frontAndBackPlanes
    {
        type            empty;
    }
}


// ************************************************************************* //
