/*--------------------------------*- C++ -*----------------------------------*\
| =========                 |                                                 |
| \\      /  F ield         | OpenFOAM: The Open Source CFD Toolbox           |
|  \\    /   O peration     | Version:  2506                                  |
|   \\  /    A nd           | Website:  www.openfoam.com                      |
|    \\/     M anipulation  |                                                 |
\*---------------------------------------------------------------------------*/
FoamFile
{
    version     2.0;
    format      ascii;
    arch        "LSB;label=32;scalar=64";
    class       surfaceScalarField;
    location    "18";
    object      phi;
}
// * * * * * * * * * * * * * * * * * * * * * * * * * * * * * * * * * * * * * //

dimensions      [1 0 -1 0 0 0 0];

oriented        oriented;

internalField   nonuniform List<scalar> 
370
(
-7.97181e-05
-2.94105e-05
-5.63275e-06
-7.409e-05
0.000121742
-0.000127383
0.000305635
-0.000183906
0.000540938
-0.000235319
0.000820127
-0.000279209
0.00113499
-0.000314881
0.00147706
-0.000342103
0.00183793
-0.000360893
0.00220941
-0.000371504
0.00258372
-0.000374333
0.00295319
-0.000369491
0.00330847
-0.000355303
0.00363259
-0.000324135
0.00388949
-0.000256903
0.00399574
-0.000106253
0.00380936
0.000186397
0.00311027
0.000699135
0.00168878
0.00142155
0.00168882
3.25007e-05
-6.19086e-05
0.000174755
-0.000216338
0.000424539
-0.00037716
0.000772242
-0.000531605
0.0012057
-0.000668781
0.00170974
-0.000783256
0.00226708
-0.000872226
0.00285854
-0.000933583
0.00346278
-0.000965139
0.00405576
-0.000964499
0.00461022
-0.00092881
0.00509422
-0.000853504
0.00546798
-0.00072908
0.00567894
-0.000535104
0.00565279
-0.00023076
0.00528924
0.000257275
0.00445383
0.00102178
0.00304535
0.00210757
0.00123435
0.00323251
0.00292315
6.68541e-05
-0.000128754
0.000256528
-0.00040599
0.000560643
-0.000681248
0.00096539
-0.000936328
0.00145557
-0.00115894
0.00201392
-0.0013416
0.00262055
-0.00147885
0.00325201
-0.00156504
0.00388052
-0.00159364
0.00447365
-0.00155763
0.00499447
-0.00144963
0.00540112
-0.00126015
0.00564491
-0.00097286
0.0056668
-0.00055699
0.00539506
4.09681e-05
0.00475549
0.000896811
0.00370438
0.00207282
0.00229373
0.00351811
0.000820568
0.00470554
0.00374364
6.92898e-05
-0.000198029
0.000257456
-0.000594119
0.000549026
-0.000972773
0.000930236
-0.00131749
0.00138708
-0.00161575
0.00190396
-0.00185846
0.00246198
-0.00203685
0.00303704
-0.00214008
0.00359887
-0.00215545
0.00411184
-0.00207055
0.00453704
-0.00187477
0.00483401
-0.00155705
0.00496011
-0.00109891
0.00486807
-0.000464911
0.00450586
0.000403193
0.00383412
0.00156851
0.00285275
0.0030541
0.00165929
0.0047114
0.000537305
0.00582732
0.00428083
5.29372e-05
-0.000250947
0.000194366
-0.000735497
0.000413723
-0.00119207
0.000702983
-0.0016067
0.00105394
-0.00196666
0.00145648
-0.00226096
0.00189589
-0.00247621
0.00235008
-0.0025942
0.00278892
-0.00259418
0.00317706
-0.00245852
0.00347902
-0.00217652
0.00366311
-0.00174093
0.00370099
-0.00113661
0.0035639
-0.000327685
0.00321907
0.000748098
0.00264966
0.00213793
0.00187927
0.00382442
0.00101315
0.00557735
0.000280792
0.00655949
0.00456154
1.63695e-05
-0.000267291
6.59073e-05
-0.000784975
0.000151896
-0.00127798
0.000277088
-0.00173182
0.00044269
-0.00213221
0.000647101
-0.00246531
0.000882514
-0.00271152
0.00113164
-0.00284312
0.00136812
-0.00283032
0.00156226
-0.00265216
0.00168899
-0.00230265
0.0017325
-0.00178385
0.00168399
-0.00108763
0.00153554
-0.000178914
0.00127813
0.00100576
0.000922004
0.00249421
0.000512386
0.00423408
0.000147166
0.00594252
-3.95931e-05
0.00674621
0.0045219
-4.09143e-05
-0.000226349
-0.000127273
-0.000698551
-0.000236189
-0.00116899
-0.000353352
-0.00161458
-0.000467795
-0.00201768
-0.000571486
-0.00236148
-0.000662861
-0.00261987
-0.00074975
-0.00275569
-0.000846792
-0.00273238
-0.00096685
-0.00253087
-0.00111233
-0.00215579
-0.001273
-0.00162189
-0.00143095
-0.000928671
-0.00156687
-4.22754e-05
-0.00164141
0.00108097
-0.00161327
0.00246657
-0.00142967
0.00405084
-0.0010397
0.00555277
-0.000466395
0.00617304
0.00405556
-0.000102608
-0.000123715
-0.000339233
-0.000461862
-0.000675425
-0.000832719
-0.00109275
-0.00119717
-0.00157453
-0.00153577
-0.00210315
-0.00183257
-0.00266263
-0.00205973
-0.0032401
-0.002177
-0.00382205
-0.0021485
-0.0043872
-0.00196325
-0.00490164
-0.00163872
-0.0053196
-0.00120152
-0.00558608
-0.000660222
-0.00564705
2.02595e-05
-0.00540708
0.000842243
-0.00481389
0.00187437
-0.0038277
0.00306544
-0.00247422
0.00419989
-0.000972795
0.00467204
0.00308295
-0.000107214
-1.64778e-05
-0.000408351
-0.000160666
-0.000893627
-0.000347364
-0.00155521
-0.00053548
-0.00237703
-0.000713734
-0.00333361
-0.000875482
-0.00438851
-0.00100367
-0.0054928
-0.00107054
-0.00658546
-0.00105257
-0.00759765
-0.000946993
-0.00845852
-0.000773551
-0.00909754
-0.000558526
-0.00943935
-0.00031508
-0.00938912
-2.7374e-05
-0.00887155
0.000326655
-0.00779182
0.000796226
-0.00610144
0.00137635
-0.0038682
0.00196769
-0.00147107
0.00227567
0.00161225
-1.6453e-05
-0.000177062
-0.000524352
-0.00105974
-0.00177329
-0.0026483
-0.0036508
-0.00471902
-0.00576788
-0.00671003
-0.00747823
-0.00803153
-0.00834198
-0.00836549
-0.00803577
-0.0072371
-0.00585879
-0.00388957
-0.00161279
)
;

boundaryField
{
    leftWall
    {
        type            calculated;
        value           nonuniform List<scalar> 10(0 0 0 0 0 0 0 0 0 5.42101e-20);
    }
    rightWall
    {
        type            calculated;
        value           nonuniform List<scalar> 10(0 0 0 0 0 0 0 -8.67362e-19 0 0);
    }
    topWall
    {
        type            calculated;
        value           uniform 0;
    }
    bottomWall
    {
        type            calculated;
        value           uniform 0;
    }
    frontAndBackPlanes
    {
        type            empty;
    }
}


// ************************************************************************* //
