/*--------------------------------*- C++ -*----------------------------------*\
| =========                 |                                                 |
| \\      /  F ield         | OpenFOAM: The Open Source CFD Toolbox           |
|  \\    /   O peration     | Version:  2506                                  |
|   \\  /    A nd           | Website:  www.openfoam.com                      |
|    \\/     M anipulation  |                                                 |
\*---------------------------------------------------------------------------*/
FoamFile
{
    version     2.0;
    format      ascii;
    arch        "LSB;label=32;scalar=64";
    class       volScalarField;
    location    "18";
    object      T;
}
// * * * * * * * * * * * * * * * * * * * * * * * * * * * * * * * * * * * * * //

dimensions      [0 0 0 1 0 0 0];

internalField   nonuniform List<scalar> 
200
(
273.15
273.149
273.148
273.147
273.147
273.147
273.147
273.147
273.146
273.146
273.146
273.147
273.147
273.148
273.15
273.157
273.178
273.238
273.4
273.788
273.149
273.147
273.146
273.145
273.144
273.144
273.143
273.143
273.143
273.143
273.143
273.143
273.143
273.144
273.146
273.152
273.171
273.23
273.403
273.806
273.148
273.145
273.143
273.141
273.139
273.139
273.138
273.138
273.138
273.138
273.138
273.138
273.138
273.139
273.142
273.148
273.17
273.238
273.424
273.831
273.148
273.143
273.139
273.136
273.134
273.133
273.133
273.132
273.132
273.133
273.133
273.133
273.134
273.135
273.138
273.147
273.174
273.252
273.451
273.856
273.147
273.14
273.135
273.131
273.129
273.127
273.127
273.127
273.128
273.129
273.13
273.132
273.133
273.133
273.137
273.149
273.184
273.274
273.485
273.881
273.146
273.137
273.13
273.126
273.123
273.122
273.122
273.123
273.126
273.13
273.134
273.138
273.14
273.141
273.146
273.163
273.206
273.31
273.532
273.909
273.144
273.134
273.126
273.12
273.118
273.117
273.118
273.123
273.13
273.142
273.154
273.165
273.171
273.174
273.185
273.211
273.267
273.379
273.592
273.933
273.143
273.131
273.121
273.115
273.113
273.113
273.118
273.129
273.148
273.173
273.201
273.226
273.246
273.262
273.283
273.316
273.375
273.481
273.666
273.958
273.142
273.128
273.117
273.11
273.108
273.11
273.12
273.141
273.175
273.221
273.273
273.323
273.367
273.404
273.435
273.472
273.527
273.615
273.76
273.99
273.142
273.127
273.115
273.107
273.104
273.105
273.114
273.137
273.177
273.234
273.303
273.376
273.445
273.508
273.563
273.616
273.674
273.75
273.859
274.026
)
;

boundaryField
{
    leftWall
    {
        type            fixedValue;
        value           uniform 273.15;
    }
    rightWall
    {
        type            customNeumannDirichletCoupledBoundary;
        refValue        nonuniform List<scalar> 10(274.125 274.126 274.127 274.129 274.13 274.132 274.134 274.136 274.138 274.139);
        refGradient     uniform 0;
        valueFraction   uniform 1;
        source          uniform 0;
        value           nonuniform List<scalar> 10(274.125 274.126 274.127 274.129 274.13 274.132 274.134 274.136 274.138 274.139);
        kappaMethod     fluidThermo;
    }
    topWall
    {
        type            zeroGradient;
    }
    bottomWall
    {
        type            zeroGradient;
    }
    frontAndBackPlanes
    {
        type            empty;
    }
}


// ************************************************************************* //
