/*--------------------------------*- C++ -*----------------------------------*\
| =========                 |                                                 |
| \\      /  F ield         | OpenFOAM: The Open Source CFD Toolbox           |
|  \\    /   O peration     | Version:  2506                                  |
|   \\  /    A nd           | Website:  www.openfoam.com                      |
|    \\/     M anipulation  |                                                 |
\*---------------------------------------------------------------------------*/
FoamFile
{
    version     2.0;
    format      ascii;
    arch        "LSB;label=32;scalar=64";
    class       volVectorField;
    location    "18";
    object      U;
}
// * * * * * * * * * * * * * * * * * * * * * * * * * * * * * * * * * * * * * //

dimensions      [0 1 -1 0 0 0 0];

internalField   nonuniform List<vector> 
200
(
(-0.000251802 -9.42152e-05 0)
(-0.000250135 -0.000175958 0)
(0.00017223 -0.00024434 0)
(0.000849021 -0.000355905 0)
(0.00172314 -0.00046648 0)
(0.00279939 -0.00056237 0)
(0.00404427 -0.000643748 0)
(0.00542084 -0.000712611 0)
(0.00689331 -0.00077228 0)
(0.00842716 -0.000827911 0)
(0.00998953 -0.000886476 0)
(0.0115498 -0.000955447 0)
(0.0130769 -0.00103886 0)
(0.0145259 -0.00112716 0)
(0.0158007 -0.00117133 0)
(0.0166651 -0.00102258 0)
(0.0166426 -0.000326194 0)
(0.014896 0.00150096 0)
(0.0105127 0.00468961 0)
(0.00312794 0.00658451 0)
(-6.72778e-06 -0.000344598 0)
(0.0003226 -0.00111711 0)
(0.00114797 -0.00195657 0)
(0.00240475 -0.00280317 0)
(0.0040452 -0.0035687 0)
(0.00601328 -0.00421894 0)
(0.00824137 -0.00474012 0)
(0.0106536 -0.00512575 0)
(0.013166 -0.00537162 0)
(0.0156846 -0.00547443 0)
(0.0181035 -0.00542974 0)
(0.0203014 -0.00522398 0)
(0.0221324 -0.00481431 0)
(0.0234119 -0.00408724 0)
(0.0238899 -0.00278161 0)
(0.0232003 -0.000361539 0)
(0.0207895 0.00404765 0)
(0.0160926 0.0111857 0)
(0.00924383 0.0197055 0)
(0.00158531 0.0197215 0)
(4.60207e-05 -0.000768707 0)
(0.000568725 -0.00254135 0)
(0.00159627 -0.00436804 0)
(0.00308634 -0.00608757 0)
(0.00496721 -0.00760066 0)
(0.00716924 -0.00885303 0)
(0.00961623 -0.00981131 0)
(0.0122191 -0.0104459 0)
(0.0148719 -0.0107238 0)
(0.0174496 -0.0106082 0)
(0.0198079 -0.0100562 0)
(0.0217837 -0.00900621 0)
(0.0231914 -0.00734441 0)
(0.0238129 -0.00484732 0)
(0.0233786 -0.00110064 0)
(0.0215344 0.00456754 0)
(0.0180116 0.0128258 0)
(0.0127559 0.0236681 0)
(0.00648116 0.0336322 0)
(0.000856367 0.0283416 0)
(4.96501e-05 -0.00137746 0)
(0.000586735 -0.00422353 0)
(0.00158573 -0.00698704 0)
(0.00299973 -0.00951917 0)
(0.00476022 -0.0117152 0)
(0.00680445 -0.013506 0)
(0.00906278 -0.0148341 0)
(0.0114475 -0.015634 0)
(0.0138457 -0.0158289 0)
(0.0161193 -0.0153384 0)
(0.0181116 -0.014084 0)
(0.0196568 -0.011973 0)
(0.0205855 -0.00885138 0)
(0.0207183 -0.0044335 0)
(0.0198209 0.00176328 0)
(0.0176908 0.0103174 0)
(0.0142084 0.0216021 0)
(0.00951432 0.0347742 0)
(0.00441398 0.0445878 0)
(0.000474986 0.0340143 0)
(4.11332e-05 -0.00192091 0)
(0.000446803 -0.00567909 0)
(0.00119709 -0.00923005 0)
(0.00226358 -0.012447 0)
(0.00360562 -0.0152266 0)
(0.00518559 -0.0174867 0)
(0.00695452 -0.0191379 0)
(0.0088376 -0.020063 0)
(0.0107257 -0.0201252 0)
(0.0124799 -0.0191979 0)
(0.013949 -0.0171863 0)
(0.0149917 -0.0140053 0)
(0.0154886 -0.00950763 0)
(0.0153343 -0.00338969 0)
(0.0143481 0.00484992 0)
(0.0124464 0.0156749 0)
(0.00960651 0.0291184 0)
(0.00604476 0.0435825 0)
(0.00247385 0.0525047 0)
(0.000169091 0.0374906 0)
(1.3677e-05 -0.00224047 0)
(0.000143483 -0.00655342 0)
(0.000422536 -0.0106167 0)
(0.000860771 -0.014317 0)
(0.00146587 -0.0175477 0)
(0.00223903 -0.0202076 0)
(0.00316315 -0.0221613 0)
(0.0041871 -0.0232187 0)
(0.00521852 -0.0231676 0)
(0.00613666 -0.0218415 0)
(0.00682277 -0.0191625 0)
(0.00719008 -0.0151015 0)
(0.00719547 -0.00955657 0)
(0.00682365 -0.0022187 0)
(0.00595691 0.00743654 0)
(0.0046646 0.0197455 0)
(0.00303021 0.0344071 0)
(0.00131298 0.0492042 0)
(-1.05242e-05 0.0567676 0)
(-0.000208982 0.0386318 0)
(-3.51888e-05 -0.00216076 0)
(-0.0003206 -0.00646054 0)
(-0.000731189 -0.0106173 0)
(-0.00121269 -0.0144842 0)
(-0.0017051 -0.0179353 0)
(-0.00216634 -0.0208439 0)
(-0.00257572 -0.0230177 0)
(-0.00294684 -0.0241803 0)
(-0.00332863 -0.0240433 0)
(-0.00378195 -0.0224242 0)
(-0.00434236 -0.0193039 0)
(-0.00499507 -0.0147442 0)
(-0.00567735 -0.00870055 0)
(-0.00629567 -0.000875729 0)
(-0.00678977 0.00918495 0)
(-0.006901 0.0216507 0)
(-0.00645603 0.0359741 0)
(-0.00525627 0.0496746 0)
(-0.00328614 0.0555588 0)
(-0.000672293 0.0366974 0)
(-9.33831e-05 -0.00153544 0)
(-0.000822936 -0.00506788 0)
(-0.00201186 -0.00873287 0)
(-0.00359431 -0.0122671 0)
(-0.00548364 -0.0155093 0)
(-0.00760603 -0.0183124 0)
(-0.0098936 -0.0204369 0)
(-0.0122886 -0.0215413 0)
(-0.0147374 -0.0213045 0)
(-0.0171677 -0.0195882 0)
(-0.0194642 -0.0164807 0)
(-0.0214624 -0.0121555 0)
(-0.0229637 -0.00664911 0)
(-0.0237352 0.00025971 0)
(-0.0233996 0.00891488 0)
(-0.0216589 0.0194871 0)
(-0.0182969 0.0314936 0)
(-0.0133001 0.0427436 0)
(-0.00727011 0.047154 0)
(-0.00125487 0.0307697 0)
(-8.03731e-05 -0.000505294 0)
(-0.000908 -0.00258366 0)
(-0.00252976 -0.00506449 0)
(-0.00492682 -0.00756561 0)
(-0.00803518 -0.00992799 0)
(-0.0117689 -0.0120328 0)
(-0.0160042 -0.0136608 0)
(-0.0205662 -0.0144912 0)
(-0.0252231 -0.0142514 0)
(-0.0296975 -0.0128886 0)
(-0.0336926 -0.0105885 0)
(-0.036915 -0.0076089 0)
(-0.0390723 -0.00406507 0)
(-0.0398299 0.000182414 0)
(-0.0386766 0.00548746 0)
(-0.035337 0.0121643 0)
(-0.029448 0.0199907 0)
(-0.0210524 0.0275345 0)
(-0.0112148 0.0307927 0)
(-0.0018732 0.0204779 0)
(5.85414e-05 0.000111072 0)
(-0.000250953 -0.000283284 0)
(-0.00130116 -0.000857159 0)
(-0.00313818 -0.00144604 0)
(-0.00574874 -0.00201173 0)
(-0.0090827 -0.00253815 0)
(-0.0130398 -0.00296625 0)
(-0.0174205 -0.00319251 0)
(-0.0219105 -0.0031322 0)
(-0.026139 -0.00279222 0)
(-0.0297768 -0.00227533 0)
(-0.0326013 -0.00170648 0)
(-0.0344767 -0.00114379 0)
(-0.0352608 -0.000523914 0)
(-0.0347179 0.000362467 0)
(-0.0324148 0.00179863 0)
(-0.0278015 0.00389132 0)
(-0.0206087 0.00636038 0)
(-0.0116326 0.00805653 0)
(-0.00275691 0.00613566 0)
)
;

boundaryField
{
    leftWall
    {
        type            fixedValue;
        value           uniform (0 0 0);
    }
    rightWall
    {
        type            fixedValue;
        value           uniform (0 0 0);
    }
    topWall
    {
        type            fixedValue;
        value           uniform (0 0 0);
    }
    bottomWall
    {
        type            fixedValue;
        value           uniform (0 0 0);
    }
    frontAndBackPlanes
    {
        type            empty;
    }
}


// ************************************************************************* //
