/*--------------------------------*- C++ -*----------------------------------*\
| =========                 |                                                 |
| \\      /  F ield         | OpenFOAM: The Open Source CFD Toolbox           |
|  \\    /   O peration     | Version:  2506                                  |
|   \\  /    A nd           | Website:  www.openfoam.com                      |
|    \\/     M anipulation  |                                                 |
\*---------------------------------------------------------------------------*/
FoamFile
{
    version     2.0;
    format      ascii;
    arch        "LSB;label=32;scalar=64";
    class       volScalarField;
    location    "29.2";
    object      p;
}
// * * * * * * * * * * * * * * * * * * * * * * * * * * * * * * * * * * * * * //

dimensions      [1 -1 -2 0 0 0 0];

internalField   nonuniform List<scalar> 
200
(
100000
100000
100000
100000
100000
100000
100000
100000
100000
99999.9
99999.9
99999.8
99999.8
99999.7
99999.6
99999.5
99999.4
99999.2
99999.1
99998.9
99733.3
99733.3
99733.3
99733.4
99733.3
99733.3
99733.3
99733.3
99733.3
99733.2
99733.2
99733.2
99733.1
99733.1
99733
99733
99732.9
99732.9
99732.9
99732.9
99466.6
99466.7
99466.7
99466.7
99466.7
99466.7
99466.6
99466.6
99466.6
99466.5
99466.5
99466.5
99466.4
99466.4
99466.4
99466.4
99466.4
99466.4
99466.4
99466.4
99200
99200
99200
99200
99200
99200
99199.9
99199.9
99199.9
99199.9
99199.8
99199.8
99199.8
99199.8
99199.8
99199.7
99199.7
99199.7
99199.8
99199.8
98933.4
98933.4
98933.4
98933.4
98933.4
98933.3
98933.3
98933.2
98933.2
98933.2
98933.2
98933.2
98933.1
98933.1
98933.1
98933.1
98933.1
98933.1
98933.1
98933.2
98666.8
98666.8
98666.8
98666.8
98666.8
98666.7
98666.7
98666.6
98666.6
98666.6
98666.6
98666.6
98666.5
98666.5
98666.5
98666.5
98666.5
98666.6
98666.6
98666.6
98400.4
98400.4
98400.3
98400.3
98400.3
98400.2
98400.2
98400.2
98400.1
98400.1
98400.1
98400.1
98400.1
98400.1
98400.1
98400.1
98400.2
98400.2
98400.2
98400.3
98134
98134
98133.9
98133.9
98133.9
98133.8
98133.8
98133.8
98133.8
98133.8
98133.8
98133.9
98133.9
98133.9
98134
98134
98134.1
98134.2
98134.2
98134.2
97867.6
97867.5
97867.5
97867.5
97867.6
97867.6
97867.7
97867.7
97867.8
97867.8
97867.9
97868
97868
97868.1
97868.2
97868.4
97868.5
97868.6
97868.7
97868.7
97601.1
97601
97601.1
97601.1
97601.3
97601.4
97601.6
97601.8
97601.9
97602.1
97602.2
97602.4
97602.5
97602.7
97602.9
97603.1
97603.4
97603.6
97603.8
97603.8
)
;

boundaryField
{
    leftWall
    {
        type            zeroGradient;
    }
    rightWall
    {
        type            zeroGradient;
    }
    topWall
    {
        type            zeroGradient;
    }
    bottomWall
    {
        type            zeroGradient;
    }
    frontAndBackPlanes
    {
        type            empty;
    }
}


// ************************************************************************* //
