/*--------------------------------*- C++ -*----------------------------------*\
| =========                 |                                                 |
| \\      /  F ield         | OpenFOAM: The Open Source CFD Toolbox           |
|  \\    /   O peration     | Version:  2506                                  |
|   \\  /    A nd           | Website:  www.openfoam.com                      |
|    \\/     M anipulation  |                                                 |
\*---------------------------------------------------------------------------*/
FoamFile
{
    version     2.0;
    format      ascii;
    arch        "LSB;label=32;scalar=64";
    class       volScalarField;
    location    "116";
    object      p_rgh;
}
// * * * * * * * * * * * * * * * * * * * * * * * * * * * * * * * * * * * * * //

dimensions      [1 -1 -2 0 0 0 0];

internalField   nonuniform List<scalar> 
200
(
100000
100000
99999.9
99999.9
99999.8
99999.8
99999.7
99999.7
99999.6
99999.6
99999.5
99999.5
99999.4
99999.4
99999.3
99999.2
99999
99998.8
99998.4
99997.9
100000
100000
99999.8
99999.7
99999.7
99999.6
99999.6
99999.5
99999.5
99999.5
99999.4
99999.4
99999.4
99999.3
99999.3
99999.2
99999.1
99998.8
99998.1
99996.8
100000
99999.9
99999.6
99999.4
99999.3
99999.2
99999.2
99999.2
99999.2
99999.2
99999.1
99999.1
99999.1
99999.1
99999.1
99999
99998.9
99998.5
99997.4
99995.3
100001
99999.8
99999.2
99998.9
99998.7
99998.6
99998.6
99998.6
99998.7
99998.7
99998.7
99998.7
99998.7
99998.7
99998.8
99998.8
99998.6
99998
99996.5
99993.7
100001
99999.7
99998.7
99998.2
99997.9
99997.9
99997.9
99998
99998
99998
99998.1
99998.1
99998.2
99998.3
99998.4
99998.4
99998.2
99997.3
99995.3
99992
100002
99999.5
99998.1
99997.4
99997.1
99997.1
99997.1
99997.2
99997.2
99997.3
99997.3
99997.4
99997.5
99997.6
99997.8
99997.7
99997.4
99996.3
99994
99990.4
100002
99999.3
99997.4
99996.5
99996.2
99996.1
99996.2
99996.2
99996.2
99996.2
99996.2
99996.3
99996.4
99996.5
99996.6
99996.5
99996
99994.8
99992.5
99988.9
100003
99998.9
99996.6
99995.5
99995.1
99995
99994.9
99994.8
99994.7
99994.7
99994.6
99994.6
99994.6
99994.6
99994.7
99994.5
99994.1
99993
99990.8
99987.5
100003
99998.4
99995.7
99994.5
99993.9
99993.6
99993.4
99993.2
99993
99992.8
99992.6
99992.5
99992.3
99992.2
99992.1
99991.9
99991.5
99990.6
99988.9
99986.2
100003
99998
99995.2
99993.8
99993.1
99992.7
99992.4
99992.1
99991.8
99991.6
99991.3
99991
99990.6
99990.3
99990
99989.7
99989.2
99988.4
99987.2
99985.2
)
;

boundaryField
{
    leftWall
    {
        type            fixedFluxPressure;
        gradient        nonuniform List<scalar> 10(0.786263 3.91442 10.0874 19.3594 31.6419 47.1984 67.0289 94.3224 127.443 158.616);
        value           nonuniform List<scalar> 10(100000 100000 100001 100001 100002 100003 100004 100005 100006 100007);
    }
    rightWall
    {
        type            fixedFluxPressure;
        gradient        nonuniform List<scalar> 10(-14.5724 -39.7238 -58.0134 -70.6871 -78.8247 -84.2381 -85.251 -79.8492 -66.3241 -48.7191);
        value           nonuniform List<scalar> 10(99997.5 99995.8 99993.9 99991.9 99990 99988.3 99986.8 99985.5 99984.5 99984);
    }
    topWall
    {
        type            fixedFluxPressure;
        gradient        uniform 0;
        value           nonuniform List<scalar> 
20
(
100000
100000
99999.9
99999.9
99999.8
99999.8
99999.7
99999.7
99999.6
99999.6
99999.5
99999.5
99999.4
99999.4
99999.3
99999.2
99999
99998.8
99998.4
99997.9
)
;
    }
    bottomWall
    {
        type            fixedFluxPressure;
        gradient        uniform 0;
        value           nonuniform List<scalar> 
20
(
100003
99998
99995.2
99993.8
99993.1
99992.7
99992.4
99992.1
99991.8
99991.6
99991.3
99991
99990.6
99990.3
99990
99989.7
99989.2
99988.4
99987.2
99985.2
)
;
    }
    frontAndBackPlanes
    {
        type            empty;
    }
}


// ************************************************************************* //
