/*--------------------------------*- C++ -*----------------------------------*\
| =========                 |                                                 |
| \\      /  F ield         | OpenFOAM: The Open Source CFD Toolbox           |
|  \\    /   O peration     | Version:  2506                                  |
|   \\  /    A nd           | Website:  www.openfoam.com                      |
|    \\/     M anipulation  |                                                 |
\*---------------------------------------------------------------------------*/
FoamFile
{
    version     2.0;
    format      ascii;
    arch        "LSB;label=32;scalar=64";
    class       volScalarField;
    location    "28.4";
    object      p_rgh;
}
// * * * * * * * * * * * * * * * * * * * * * * * * * * * * * * * * * * * * * //

dimensions      [1 -1 -2 0 0 0 0];

internalField   nonuniform List<scalar> 
200
(
100000
100000
100000
100000
100000
100000
100000
100000
100000
100000
100000
99999.9
99999.9
99999.8
99999.7
99999.6
99999.4
99999.2
99998.8
99998.2
100000
100000
100000
100000
100000
100000
100000
100000
100000
100000
100000
99999.9
99999.9
99999.9
99999.8
99999.7
99999.6
99999.3
99998.6
99997
100000
100000
100000
100000
100000
100000
100000
100000
100000
100000
100000
100000
99999.9
99999.9
99999.9
99999.8
99999.7
99999.2
99998
99995.3
100000
100000
100000
100000
100000
100000
100000
100000
100000
100000
99999.9
99999.9
99999.9
99999.9
99999.9
99999.8
99999.6
99998.9
99997
99993.3
100000
100000
100000
100000
100000
100000
100000
99999.9
99999.8
99999.8
99999.8
99999.8
99999.8
99999.9
99999.9
99999.8
99999.4
99998.4
99995.8
99991.1
100000
100000
100000
100000
100000
99999.9
99999.7
99999.5
99999.4
99999.3
99999.3
99999.4
99999.6
99999.7
99999.7
99999.5
99999
99997.5
99994.3
99988.9
100000
100001
100000
100000
99999.9
99999.4
99999
99998.7
99998.5
99998.5
99998.5
99998.7
99998.8
99998.9
99998.9
99998.6
99997.8
99995.9
99992.4
99986.7
100001
100001
100001
100000
99999.3
99998.5
99997.8
99997.3
99997
99996.9
99996.9
99996.9
99996.9
99996.9
99996.8
99996.4
99995.5
99993.6
99990.2
99984.6
100001
100001
100001
99999.7
99998.5
99997.2
99996.1
99995.3
99994.7
99994.2
99993.9
99993.6
99993.5
99993.3
99993.2
99992.8
99992
99990.4
99987.5
99982.7
100001
100001
100001
99999.8
99998.4
99996.9
99995.4
99994.2
99993.1
99992.2
99991.4
99990.8
99990.2
99989.7
99989.3
99988.8
99988
99986.8
99984.6
99981.1
)
;

boundaryField
{
    leftWall
    {
        type            fixedFluxPressure;
        gradient        nonuniform List<scalar> 10(-0.0262763 -0.0991958 -0.225691 -0.40977 -0.676653 -1.05996 -1.58914 -2.28639 -3.11265 -4.69928);
        value           nonuniform List<scalar> 10(100000 100000 100000 100000 100000 100000 100000 100001 100001 100001);
    }
    rightWall
    {
        type            fixedFluxPressure;
        gradient        nonuniform List<scalar> 10(-17.8147 -50.8461 -78.693 -101.693 -118.964 -129.709 -136.613 -135.376 -120.848 -93.6265);
        value           nonuniform List<scalar> 10(99997.7 99995.7 99993.3 99990.8 99988.2 99985.6 99983.2 99981.2 99979.7 99978.7);
    }
    topWall
    {
        type            fixedFluxPressure;
        gradient        uniform 0;
        value           nonuniform List<scalar> 
20
(
100000
100000
100000
100000
100000
100000
100000
100000
100000
100000
100000
99999.9
99999.9
99999.8
99999.7
99999.6
99999.4
99999.2
99998.8
99998.2
)
;
    }
    bottomWall
    {
        type            fixedFluxPressure;
        gradient        uniform 0;
        value           nonuniform List<scalar> 
20
(
100001
100001
100001
99999.8
99998.4
99996.9
99995.4
99994.2
99993.1
99992.2
99991.4
99990.8
99990.2
99989.7
99989.3
99988.8
99988
99986.8
99984.6
99981.1
)
;
    }
    frontAndBackPlanes
    {
        type            empty;
    }
}


// ************************************************************************* //
