/*--------------------------------*- C++ -*----------------------------------*\
| =========                 |                                                 |
| \\      /  F ield         | OpenFOAM: The Open Source CFD Toolbox           |
|  \\    /   O peration     | Version:  2506                                  |
|   \\  /    A nd           | Website:  www.openfoam.com                      |
|    \\/     M anipulation  |                                                 |
\*---------------------------------------------------------------------------*/
FoamFile
{
    version     2.0;
    format      ascii;
    arch        "LSB;label=32;scalar=64";
    class       volScalarField;
    location    "72";
    object      T;
}
// * * * * * * * * * * * * * * * * * * * * * * * * * * * * * * * * * * * * * //

dimensions      [0 0 0 1 0 0 0];

internalField   nonuniform List<scalar> 
200
(
273.155
273.163
273.169
273.174
273.176
273.178
273.179
273.18
273.18
273.181
273.183
273.184
273.186
273.188
273.191
273.2
273.222
273.285
273.447
273.816
273.16
273.177
273.191
273.199
273.204
273.206
273.206
273.207
273.207
273.208
273.209
273.21
273.211
273.212
273.213
273.217
273.236
273.298
273.468
273.843
273.168
273.201
273.225
273.24
273.248
273.251
273.252
273.251
273.251
273.251
273.251
273.25
273.249
273.247
273.245
273.246
273.265
273.331
273.509
273.877
273.178
273.229
273.267
273.29
273.301
273.305
273.305
273.303
273.301
273.3
273.298
273.295
273.292
273.285
273.279
273.278
273.297
273.37
273.555
273.908
273.189
273.26
273.312
273.342
273.357
273.361
273.36
273.357
273.354
273.351
273.348
273.344
273.336
273.326
273.315
273.313
273.336
273.416
273.606
273.937
273.201
273.294
273.36
273.397
273.414
273.418
273.416
273.413
273.411
273.408
273.405
273.399
273.39
273.377
273.365
273.366
273.395
273.483
273.665
273.962
273.214
273.33
273.411
273.454
273.471
273.476
273.477
273.477
273.477
273.477
273.476
273.472
273.464
273.455
273.449
273.455
273.487
273.569
273.73
273.987
273.231
273.371
273.461
273.508
273.53
273.541
273.548
273.554
273.561
273.567
273.571
273.573
273.572
273.57
273.571
273.579
273.609
273.677
273.807
274.015
273.249
273.408
273.506
273.559
273.59
273.61
273.626
273.641
273.654
273.667
273.679
273.69
273.699
273.708
273.716
273.728
273.753
273.804
273.897
274.048
273.262
273.428
273.529
273.586
273.622
273.648
273.67
273.69
273.71
273.729
273.748
273.768
273.787
273.807
273.828
273.849
273.877
273.918
273.982
274.081
)
;

boundaryField
{
    leftWall
    {
        type            fixedValue;
        value           uniform 273.15;
    }
    rightWall
    {
        type            customNeumannDirichletCoupledBoundary;
        refValue        nonuniform List<scalar> 10(274.127 274.128 274.13 274.132 274.134 274.136 274.138 274.14 274.142 274.143);
        refGradient     uniform 0;
        valueFraction   uniform 1;
        source          uniform 0;
        value           nonuniform List<scalar> 10(274.127 274.128 274.13 274.132 274.134 274.136 274.138 274.14 274.142 274.143);
        kappaMethod     fluidThermo;
    }
    topWall
    {
        type            zeroGradient;
    }
    bottomWall
    {
        type            zeroGradient;
    }
    frontAndBackPlanes
    {
        type            empty;
    }
}


// ************************************************************************* //
