/*--------------------------------*- C++ -*----------------------------------*\
| =========                 |                                                 |
| \\      /  F ield         | OpenFOAM: The Open Source CFD Toolbox           |
|  \\    /   O peration     | Version:  2506                                  |
|   \\  /    A nd           | Website:  www.openfoam.com                      |
|    \\/     M anipulation  |                                                 |
\*---------------------------------------------------------------------------*/
FoamFile
{
    version     2.0;
    format      ascii;
    arch        "LSB;label=32;scalar=64";
    class       volScalarField;
    location    "76";
    object      T;
}
// * * * * * * * * * * * * * * * * * * * * * * * * * * * * * * * * * * * * * //

dimensions      [0 0 0 1 0 0 0];

internalField   nonuniform List<scalar> 
200
(
273.155
273.166
273.173
273.179
273.182
273.184
273.185
273.186
273.187
273.188
273.189
273.191
273.193
273.195
273.199
273.207
273.23
273.292
273.454
273.82
273.161
273.181
273.197
273.206
273.211
273.213
273.214
273.215
273.215
273.216
273.217
273.219
273.22
273.221
273.222
273.226
273.245
273.307
273.475
273.847
273.17
273.207
273.234
273.25
273.258
273.262
273.262
273.262
273.261
273.261
273.261
273.261
273.26
273.258
273.256
273.257
273.276
273.341
273.517
273.881
273.181
273.237
273.277
273.302
273.314
273.318
273.318
273.316
273.314
273.312
273.31
273.308
273.304
273.298
273.291
273.291
273.31
273.381
273.564
273.912
273.192
273.269
273.324
273.356
273.371
273.375
273.374
273.371
273.368
273.365
273.362
273.357
273.35
273.34
273.329
273.327
273.35
273.429
273.615
273.942
273.204
273.303
273.373
273.412
273.429
273.433
273.431
273.428
273.424
273.422
273.419
273.413
273.404
273.391
273.38
273.38
273.41
273.495
273.675
273.966
273.218
273.34
273.425
273.468
273.486
273.491
273.491
273.49
273.491
273.491
273.49
273.486
273.478
273.469
273.463
273.469
273.501
273.581
273.739
273.99
273.235
273.382
273.475
273.522
273.544
273.555
273.561
273.568
273.574
273.579
273.584
273.585
273.585
273.583
273.583
273.592
273.621
273.688
273.815
274.018
273.254
273.42
273.52
273.574
273.604
273.623
273.639
273.653
273.666
273.679
273.69
273.701
273.71
273.718
273.726
273.738
273.763
273.812
273.903
274.051
273.267
273.44
273.543
273.6
273.636
273.661
273.682
273.701
273.72
273.739
273.758
273.777
273.796
273.815
273.835
273.856
273.884
273.924
273.987
274.083
)
;

boundaryField
{
    leftWall
    {
        type            fixedValue;
        value           uniform 273.15;
    }
    rightWall
    {
        type            customNeumannDirichletCoupledBoundary;
        refValue        nonuniform List<scalar> 10(274.127 274.128 274.13 274.132 274.134 274.136 274.138 274.14 274.142 274.143);
        refGradient     uniform 0;
        valueFraction   uniform 1;
        source          uniform 0;
        value           nonuniform List<scalar> 10(274.127 274.128 274.13 274.132 274.134 274.136 274.138 274.14 274.142 274.143);
        kappaMethod     fluidThermo;
    }
    topWall
    {
        type            zeroGradient;
    }
    bottomWall
    {
        type            zeroGradient;
    }
    frontAndBackPlanes
    {
        type            empty;
    }
}


// ************************************************************************* //
