/*--------------------------------*- C++ -*----------------------------------*\
| =========                 |                                                 |
| \\      /  F ield         | OpenFOAM: The Open Source CFD Toolbox           |
|  \\    /   O peration     | Version:  2506                                  |
|   \\  /    A nd           | Website:  www.openfoam.com                      |
|    \\/     M anipulation  |                                                 |
\*---------------------------------------------------------------------------*/
FoamFile
{
    version     2.0;
    format      ascii;
    arch        "LSB;label=32;scalar=64";
    class       volVectorField;
    location    "36";
    object      U;
}
// * * * * * * * * * * * * * * * * * * * * * * * * * * * * * * * * * * * * * //

dimensions      [0 1 -1 0 0 0 0];

internalField   nonuniform List<vector> 
200
(
(-0.000219958 -0.000126282 0)
(3.62879e-06 -0.000280927 0)
(0.000794856 -0.000383399 0)
(0.00186061 -0.00047397 0)
(0.00301045 -0.00051344 0)
(0.00418067 -0.000508826 0)
(0.00531009 -0.000486974 0)
(0.00637406 -0.000472967 0)
(0.00738344 -0.000486249 0)
(0.00837342 -0.000540533 0)
(0.00939166 -0.000644055 0)
(0.0104865 -0.000798765 0)
(0.0116917 -0.000996359 0)
(0.0130039 -0.0012074 0)
(0.0143402 -0.00135778 0)
(0.0154459 -0.00127642 0)
(0.0157615 -0.000599131 0)
(0.0143724 0.00127599 0)
(0.0102879 0.00455102 0)
(0.003096 0.00651946 0)
(7.55327e-05 -0.000845473 0)
(0.00102779 -0.00229371 0)
(0.00271863 -0.00338155 0)
(0.00483314 -0.00404061 0)
(0.00708735 -0.00427896 0)
(0.00929491 -0.00421558 0)
(0.0113515 -0.00399612 0)
(0.0132177 -0.00374937 0)
(0.0148987 -0.0035695 0)
(0.0164237 -0.00351061 0)
(0.0178234 -0.00358418 0)
(0.0191084 -0.0037525 0)
(0.0202437 -0.00391118 0)
(0.0211186 -0.00385281 0)
(0.021509 -0.00320091 0)
(0.0210277 -0.00130652 0)
(0.0190726 0.00281111 0)
(0.0149697 0.00996247 0)
(0.00871014 0.01876 0)
(0.00150946 0.0192444 0)
(0.000180335 -0.00222232 0)
(0.00167686 -0.00568166 0)
(0.00396732 -0.00798041 0)
(0.00662513 -0.00911799 0)
(0.00926576 -0.00932032 0)
(0.0116795 -0.00891357 0)
(0.0137842 -0.00821183 0)
(0.0155746 -0.0074584 0)
(0.0170838 -0.00680747 0)
(0.0183547 -0.0063239 0)
(0.0194161 -0.00598394 0)
(0.0202604 -0.00566672 0)
(0.020822 -0.00513036 0)
(0.0209537 -0.0039703 0)
(0.0204073 -0.00156266 0)
(0.0188024 0.00296824 0)
(0.0158084 0.0104907 0)
(0.0112718 0.0211328 0)
(0.00575425 0.0314618 0)
(0.000753386 0.0271711 0)
(0.000243536 -0.00420508 0)
(0.00206626 -0.0100485 0)
(0.0046086 -0.0134002 0)
(0.00731996 -0.0146312 0)
(0.00977069 -0.0143557 0)
(0.0117845 -0.0132213 0)
(0.0133484 -0.0117575 0)
(0.0145282 -0.0103223 0)
(0.0154143 -0.0091061 0)
(0.0160879 -0.00815388 0)
(0.0165995 -0.00737834 0)
(0.0169511 -0.00655445 0)
(0.0170817 -0.00529526 0)
(0.0168523 -0.00301935 0)
(0.0160145 0.001062 0)
(0.0143146 0.00780967 0)
(0.0115447 0.0178705 0)
(0.00773707 0.0306027 0)
(0.00354441 0.040872 0)
(0.000353214 0.0319663 0)
(0.000295531 -0.00650905 0)
(0.00219183 -0.0147002 0)
(0.00454707 -0.0186791 0)
(0.00677494 -0.0194585 0)
(0.00849067 -0.0182279 0)
(0.0096163 -0.016053 0)
(0.0102474 -0.0136953 0)
(0.0105396 -0.0115987 0)
(0.0106434 -0.00994703 0)
(0.0106733 -0.00872486 0)
(0.0106934 -0.0077521 0)
(0.0107106 -0.00668383 0)
(0.0106691 -0.00498734 0)
(0.0104448 -0.00192426 0)
(0.00981072 0.00340469 0)
(0.00858311 0.0118053 0)
(0.00663476 0.0236223 0)
(0.00408295 0.0374836 0)
(0.00151556 0.0469952 0)
(3.49371e-05 0.0344336 0)
(0.000307859 -0.00881202 0)
(0.00187845 -0.0188163 0)
(0.00345957 -0.022733 0)
(0.00458516 -0.0224877 0)
(0.0050395 -0.0199687 0)
(0.0049057 -0.0166842 0)
(0.00440134 -0.0135783 0)
(0.00374946 -0.0111077 0)
(0.00312051 -0.00938062 0)
(0.00261656 -0.00827191 0)
(0.00227527 -0.00748116 0)
(0.00207895 -0.0065375 0)
(0.00196345 -0.00477603 0)
(0.00182802 -0.00133153 0)
(0.00152012 0.00476296 0)
(0.000975796 0.0141971 0)
(0.000221137 0.0269737 0)
(-0.000521616 0.0410789 0)
(-0.000860455 0.049346 0)
(-0.000301894 0.0345521 0)
(0.000231635 -0.0105196 0)
(0.000855017 -0.0211489 0)
(0.000914024 -0.0241682 0)
(0.000279753 -0.0225221 0)
(-0.000945929 -0.0187412 0)
(-0.00248757 -0.0146844 0)
(-0.00407791 -0.0113303 0)
(-0.00552893 -0.00900906 0)
(-0.00674109 -0.00766072 0)
(-0.00768727 -0.00701138 0)
(-0.00838619 -0.00664757 0)
(-0.00887827 -0.00601786 0)
(-0.00920397 -0.00440877 0)
(-0.00937578 -0.000956882 0)
(-0.00933708 0.00520535 0)
(-0.00894726 0.0145687 0)
(-0.00799557 0.0268295 0)
(-0.00625383 0.0397566 0)
(-0.00374424 0.0465966 0)
(-0.000717457 0.0318034 0)
(-1.97891e-05 -0.0106494 0)
(-0.00116042 -0.0200078 0)
(-0.00337906 -0.0213893 0)
(-0.00620209 -0.0185277 0)
(-0.00913087 -0.0142508 0)
(-0.0118385 -0.0102934 0)
(-0.0141748 -0.00741016 0)
(-0.0161149 -0.00571628 0)
(-0.0177059 -0.00500085 0)
(-0.0190197 -0.00491171 0)
(-0.0201159 -0.00502007 0)
(-0.0210132 -0.00481545 0)
(-0.0216613 -0.00368505 0)
(-0.0219073 -0.000929499 0)
(-0.021431 0.00412646 0)
(-0.0199003 0.0118765 0)
(-0.0169589 0.0219856 0)
(-0.0124557 0.0325026 0)
(-0.00686888 0.0379101 0)
(-0.00117993 0.0257388 0)
(-0.000502234 -0.00810769 0)
(-0.00393808 -0.0140539 0)
(-0.00854981 -0.0138542 0)
(-0.0131852 -0.0108903 0)
(-0.0170961 -0.00740865 0)
(-0.0201034 -0.0045845 0)
(-0.022335 -0.0028 0)
(-0.0240263 -0.00199235 0)
(-0.0254114 -0.00191499 0)
(-0.0266667 -0.00227168 0)
(-0.0278824 -0.00275437 0)
(-0.0290443 -0.00303097 0)
(-0.0300131 -0.00272242 0)
(-0.030502 -0.00139618 0)
(-0.0300384 0.00141051 0)
(-0.0280247 0.00608005 0)
(-0.0239175 0.0124902 0)
(-0.0175097 0.0194339 0)
(-0.00954629 0.0234208 0)
(-0.00162872 0.016401 0)
(-0.00109771 -0.00247288 0)
(-0.00499089 -0.00363192 0)
(-0.00947138 -0.00307458 0)
(-0.013278 -0.0019784 0)
(-0.0158787 -0.000967567 0)
(-0.0174092 -0.000273594 0)
(-0.0182271 8.25213e-05 0)
(-0.018688 0.000165843 0)
(-0.0190682 5.89198e-05 0)
(-0.019551 -0.000164751 0)
(-0.0202308 -0.000443568 0)
(-0.0211106 -0.000718058 0)
(-0.0220911 -0.000916771 0)
(-0.022945 -0.00094113 0)
(-0.0232826 -0.000640839 0)
(-0.0225661 0.000212835 0)
(-0.0201218 0.00176693 0)
(-0.0154668 0.00387212 0)
(-0.00901631 0.00563619 0)
(-0.00216134 0.00468948 0)
)
;

boundaryField
{
    leftWall
    {
        type            fixedValue;
        value           uniform (0 0 0);
    }
    rightWall
    {
        type            fixedValue;
        value           uniform (0 0 0);
    }
    topWall
    {
        type            fixedValue;
        value           uniform (0 0 0);
    }
    bottomWall
    {
        type            fixedValue;
        value           uniform (0 0 0);
    }
    frontAndBackPlanes
    {
        type            empty;
    }
}


// ************************************************************************* //
