/*--------------------------------*- C++ -*----------------------------------*\
| =========                 |                                                 |
| \\      /  F ield         | OpenFOAM: The Open Source CFD Toolbox           |
|  \\    /   O peration     | Version:  2506                                  |
|   \\  /    A nd           | Website:  www.openfoam.com                      |
|    \\/     M anipulation  |                                                 |
\*---------------------------------------------------------------------------*/
FoamFile
{
    version     2.0;
    format      ascii;
    arch        "LSB;label=32;scalar=64";
    class       volVectorField;
    location    "138";
    object      U;
}
// * * * * * * * * * * * * * * * * * * * * * * * * * * * * * * * * * * * * * //

dimensions      [0 1 -1 0 0 0 0];

internalField   nonuniform List<vector> 
200
(
(0.000576944 -0.00138588 0)
(0.00279542 -0.00175076 0)
(0.0051017 -0.00127592 0)
(0.00690469 -0.000671977 0)
(0.00798568 -0.000210207 0)
(0.00849787 5.41076e-05 0)
(0.00867105 0.000148075 0)
(0.00870691 0.000121085 0)
(0.00875209 1.84779e-05 0)
(0.00890439 -0.000128465 0)
(0.00922512 -0.000305376 0)
(0.00974972 -0.000509101 0)
(0.0104937 -0.000736771 0)
(0.0114426 -0.000968146 0)
(0.0125102 -0.0011349 0)
(0.0134448 -0.00106693 0)
(0.0137032 -0.000419725 0)
(0.0124279 0.00130024 0)
(0.00878405 0.004133 0)
(0.00261896 0.00556749 0)
(0.000584074 -0.00540515 0)
(0.00369575 -0.00827657 0)
(0.00705187 -0.00731109 0)
(0.00990154 -0.00511221 0)
(0.0118972 -0.00298602 0)
(0.0131199 -0.00144765 0)
(0.0138034 -0.000585863 0)
(0.0141864 -0.000297705 0)
(0.0144567 -0.000423449 0)
(0.0147383 -0.00081433 0)
(0.015098 -0.00135613 0)
(0.0155541 -0.00195875 0)
(0.0160753 -0.00251818 0)
(0.0165625 -0.00285084 0)
(0.0168142 -0.00260011 0)
(0.0164742 -0.00113497 0)
(0.0149783 0.0024349 0)
(0.0117317 0.00871159 0)
(0.0067462 0.0161597 0)
(0.00113478 0.0160282 0)
(0.000537086 -0.0093913 0)
(0.00340357 -0.0148825 0)
(0.0064281 -0.0136385 0)
(0.00900498 -0.0100435 0)
(0.0108477 -0.00639146 0)
(0.0120321 -0.00361831 0)
(0.0127529 -0.00192117 0)
(0.0131956 -0.00115673 0)
(0.0134959 -0.00106926 0)
(0.0137356 -0.00140457 0)
(0.0139507 -0.00194738 0)
(0.014137 -0.00250607 0)
(0.014246 -0.00285472 0)
(0.0141695 -0.00264158 0)
(0.0137164 -0.00128818 0)
(0.0125867 0.002039 0)
(0.0105177 0.00814579 0)
(0.00737962 0.0170439 0)
(0.00360807 0.0254927 0)
(0.000404266 0.021541 0)
(0.000459922 -0.0128819 0)
(0.00276839 -0.0203944 0)
(0.00501185 -0.0186923 0)
(0.00679128 -0.0138317 0)
(0.00797427 -0.00893374 0)
(0.00869039 -0.00522441 0)
(0.00911649 -0.00292295 0)
(0.00938334 -0.00180638 0)
(0.00956321 -0.00152178 0)
(0.00968645 -0.00173234 0)
(0.00975845 -0.0021572 0)
(0.00976607 -0.00254041 0)
(0.00967126 -0.0025711 0)
(0.0093951 -0.00177957 0)
(0.00879343 0.00053823 0)
(0.00771123 0.00522021 0)
(0.00602683 0.0129098 0)
(0.00378966 0.0230224 0)
(0.00146556 0.0310922 0)
(4.01849e-05 0.0239279 0)
(0.000369836 -0.0156308 0)
(0.00196835 -0.0242728 0)
(0.00322246 -0.0218348 0)
(0.00400219 -0.0158731 0)
(0.00436838 -0.0101132 0)
(0.00450584 -0.00588873 0)
(0.00456008 -0.00332443 0)
(0.00459639 -0.00207346 0)
(0.00462481 -0.00169628 0)
(0.00463467 -0.00181424 0)
(0.00461423 -0.00212856 0)
(0.00455188 -0.00236042 0)
(0.00442413 -0.00214868 0)
(0.00417963 -0.000944475 0)
(0.0037222 0.00202301 0)
(0.00298184 0.00755095 0)
(0.00194193 0.0160712 0)
(0.000766386 0.0264727 0)
(-0.00014467 0.0335929 0)
(-0.000181784 0.024306 0)
(0.000264636 -0.0175034 0)
(0.000983937 -0.0262351 0)
(0.00106776 -0.0228234 0)
(0.000741834 -0.0160394 0)
(0.000265407 -0.00989026 0)
(-0.000162997 -0.00559528 0)
(-0.000472439 -0.00310398 0)
(-0.000682929 -0.00193106 0)
(-0.00083165 -0.00158831 0)
(-0.000949995 -0.0017018 0)
(-0.00105612 -0.00198751 0)
(-0.00116314 -0.00216051 0)
(-0.0012914 -0.00182366 0)
(-0.00147207 -0.000381143 0)
(-0.00173734 0.00294265 0)
(-0.00205216 0.00883961 0)
(-0.00229819 0.0174634 0)
(-0.00223552 0.02732 0)
(-0.00162745 0.0331909 0)
(-0.000363359 0.0230639 0)
(0.000125028 -0.0181814 0)
(-0.000356202 -0.0258268 0)
(-0.00170365 -0.0213072 0)
(-0.00323041 -0.0141829 0)
(-0.0045508 -0.0082627 0)
(-0.00553672 -0.0043847 0)
(-0.00622331 -0.00225739 0)
(-0.00669897 -0.00133308 0)
(-0.00704016 -0.001143 0)
(-0.007298 -0.00134868 0)
(-0.00750396 -0.00168783 0)
(-0.00767916 -0.0018763 0)
(-0.00783546 -0.00151569 0)
(-0.0079589 -4.51839e-05 0)
(-0.0079699 0.0032024 0)
(-0.00770367 0.00876233 0)
(-0.00692404 0.0165968 0)
(-0.00540187 0.0251723 0)
(-0.00317113 0.0297961 0)
(-0.000570622 0.0202179 0)
(-0.000217286 -0.0170283 0)
(-0.00246023 -0.02224 0)
(-0.00545081 -0.0168962 0)
(-0.00819827 -0.0102226 0)
(-0.0102627 -0.00522962 0)
(-0.0116606 -0.00224199 0)
(-0.0125673 -0.000784069 0)
(-0.013158 -0.000307464 0)
(-0.0135616 -0.000400894 0)
(-0.0138705 -0.000780371 0)
(-0.014136 -0.0012263 0)
(-0.0143769 -0.00149901 0)
(-0.0145681 -0.00127211 0)
(-0.0146156 -0.000110631 0)
(-0.014317 0.00248013 0)
(-0.0133998 0.00690014 0)
(-0.0115377 0.0130677 0)
(-0.00854316 0.0197308 0)
(-0.00471138 0.023235 0)
(-0.000787482 0.0157106 0)
(-0.000871442 -0.0129197 0)
(-0.0054823 -0.0146376 0)
(-0.0100308 -0.00947942 0)
(-0.0134315 -0.00449607 0)
(-0.0154752 -0.00133419 0)
(-0.0165401 0.000212277 0)
(-0.0170505 0.000713431 0)
(-0.0172957 0.000634534 0)
(-0.0174579 0.000266496 0)
(-0.0176374 -0.00022228 0)
(-0.0178824 -0.000708683 0)
(-0.0181902 -0.00105989 0)
(-0.0184905 -0.00109345 0)
(-0.0186255 -0.000560045 0)
(-0.018316 0.000843888 0)
(-0.0171673 0.00341266 0)
(-0.0147582 0.00715419 0)
(-0.0108697 0.0113593 0)
(-0.00592828 0.0138325 0)
(-0.000994599 0.00966562 0)
(-0.00207692 -0.00442799 0)
(-0.00730294 -0.00378133 0)
(-0.0109485 -0.0016706 0)
(-0.0127865 -0.000216243 0)
(-0.0133134 0.000449279 0)
(-0.0131823 0.000619144 0)
(-0.0128214 0.000555229 0)
(-0.0124719 0.000402573 0)
(-0.0122485 0.000224742 0)
(-0.0121974 4.23366e-05 0)
(-0.0123292 -0.000135075 0)
(-0.0126231 -0.000294181 0)
(-0.0130201 -0.000409829 0)
(-0.0133967 -0.000435085 0)
(-0.0135376 -0.000289822 0)
(-0.0131227 0.00015128 0)
(-0.0117333 0.000986629 0)
(-0.00904084 0.00215985 0)
(-0.0052606 0.00317602 0)
(-0.00124076 0.00266298 0)
)
;

boundaryField
{
    leftWall
    {
        type            fixedValue;
        value           uniform (0 0 0);
    }
    rightWall
    {
        type            fixedValue;
        value           uniform (0 0 0);
    }
    topWall
    {
        type            fixedValue;
        value           uniform (0 0 0);
    }
    bottomWall
    {
        type            fixedValue;
        value           uniform (0 0 0);
    }
    frontAndBackPlanes
    {
        type            empty;
    }
}


// ************************************************************************* //
