/*--------------------------------*- C++ -*----------------------------------*\
| =========                 |                                                 |
| \\      /  F ield         | OpenFOAM: The Open Source CFD Toolbox           |
|  \\    /   O peration     | Version:  2506                                  |
|   \\  /    A nd           | Website:  www.openfoam.com                      |
|    \\/     M anipulation  |                                                 |
\*---------------------------------------------------------------------------*/
FoamFile
{
    version     2.0;
    format      ascii;
    arch        "LSB;label=32;scalar=64";
    class       volScalarField;
    location    "48.4";
    object      T;
}
// * * * * * * * * * * * * * * * * * * * * * * * * * * * * * * * * * * * * * //

dimensions      [0 0 0 1 0 0 0];

internalField   nonuniform List<scalar> 
200
(
273.15
273.151
273.152
273.152
273.153
273.153
273.153
273.152
273.152
273.152
273.152
273.153
273.153
273.154
273.157
273.165
273.187
273.25
273.415
273.797
273.152
273.156
273.159
273.162
273.163
273.164
273.164
273.164
273.164
273.164
273.164
273.164
273.163
273.163
273.164
273.168
273.188
273.251
273.426
273.821
273.155
273.165
273.174
273.181
273.185
273.187
273.187
273.187
273.187
273.186
273.185
273.184
273.182
273.179
273.176
273.179
273.2
273.27
273.457
273.851
273.16
273.18
273.197
273.209
273.216
273.22
273.221
273.22
273.219
273.217
273.214
273.211
273.206
273.199
273.193
273.195
273.218
273.296
273.495
273.88
273.167
273.2
273.227
273.246
273.257
273.262
273.263
273.261
273.259
273.256
273.251
273.245
273.236
273.225
273.215
273.216
273.244
273.333
273.539
273.908
273.175
273.224
273.264
273.291
273.305
273.311
273.312
273.311
273.308
273.304
273.299
273.292
273.28
273.264
273.251
273.255
273.292
273.392
273.597
273.935
273.185
273.252
273.306
273.341
273.36
273.368
273.371
273.371
273.371
273.37
273.368
273.362
273.352
273.34
273.334
273.343
273.383
273.479
273.664
273.96
273.197
273.285
273.352
273.396
273.42
273.434
273.444
273.452
273.459
273.465
273.469
273.47
273.469
273.467
273.467
273.478
273.514
273.595
273.746
273.99
273.211
273.317
273.396
273.45
273.485
273.511
273.531
273.548
273.564
273.579
273.593
273.605
273.615
273.625
273.634
273.648
273.677
273.737
273.846
274.027
273.219
273.334
273.419
273.479
273.522
273.556
273.584
273.609
273.633
273.656
273.678
273.701
273.723
273.746
273.769
273.793
273.824
273.871
273.947
274.065
)
;

boundaryField
{
    leftWall
    {
        type            fixedValue;
        value           uniform 273.15;
    }
    rightWall
    {
        type            customNeumannDirichletCoupledBoundary;
        refValue        nonuniform List<scalar> 10(274.125 274.127 274.128 274.13 274.132 274.134 274.136 274.138 274.14 274.142);
        refGradient     uniform 0;
        valueFraction   uniform 1;
        source          uniform 0;
        value           nonuniform List<scalar> 10(274.125 274.127 274.128 274.13 274.132 274.134 274.136 274.138 274.14 274.142);
        kappaMethod     fluidThermo;
    }
    topWall
    {
        type            zeroGradient;
    }
    bottomWall
    {
        type            zeroGradient;
    }
    frontAndBackPlanes
    {
        type            empty;
    }
}


// ************************************************************************* //
