/*--------------------------------*- C++ -*----------------------------------*\
| =========                 |                                                 |
| \\      /  F ield         | OpenFOAM: The Open Source CFD Toolbox           |
|  \\    /   O peration     | Version:  2506                                  |
|   \\  /    A nd           | Website:  www.openfoam.com                      |
|    \\/     M anipulation  |                                                 |
\*---------------------------------------------------------------------------*/
FoamFile
{
    version     2.0;
    format      ascii;
    arch        "LSB;label=32;scalar=64";
    class       volScalarField;
    location    "69";
    object      T;
}
// * * * * * * * * * * * * * * * * * * * * * * * * * * * * * * * * * * * * * //

dimensions      [0 0 0 1 0 0 0];

internalField   nonuniform List<scalar> 
200
(
273.154
273.161
273.167
273.17
273.173
273.174
273.175
273.175
273.176
273.177
273.178
273.179
273.181
273.183
273.186
273.194
273.217
273.279
273.442
273.813
273.158
273.174
273.186
273.194
273.198
273.2
273.201
273.201
273.201
273.202
273.203
273.204
273.205
273.205
273.206
273.211
273.23
273.292
273.462
273.84
273.166
273.196
273.219
273.233
273.24
273.243
273.244
273.243
273.243
273.243
273.242
273.242
273.241
273.239
273.236
273.238
273.257
273.323
273.502
273.873
273.176
273.223
273.259
273.28
273.291
273.295
273.295
273.294
273.292
273.29
273.288
273.286
273.282
273.276
273.269
273.268
273.288
273.361
273.548
273.905
273.187
273.254
273.303
273.332
273.346
273.35
273.349
273.347
273.343
273.341
273.337
273.333
273.326
273.315
273.304
273.302
273.326
273.407
273.598
273.934
273.198
273.286
273.35
273.386
273.402
273.406
273.405
273.402
273.4
273.397
273.394
273.388
273.379
273.365
273.353
273.354
273.384
273.473
273.658
273.959
273.211
273.322
273.399
273.442
273.459
273.465
273.465
273.466
273.466
273.466
273.465
273.461
273.453
273.443
273.437
273.443
273.476
273.56
273.723
273.984
273.227
273.362
273.449
273.496
273.518
273.529
273.537
273.544
273.55
273.556
273.56
273.562
273.562
273.56
273.56
273.569
273.599
273.669
273.801
274.012
273.246
273.399
273.495
273.548
273.579
273.599
273.616
273.631
273.645
273.658
273.67
273.681
273.691
273.699
273.708
273.72
273.746
273.797
273.892
274.046
273.258
273.419
273.518
273.575
273.612
273.638
273.66
273.681
273.701
273.721
273.741
273.761
273.781
273.801
273.822
273.844
273.872
273.913
273.979
274.079
)
;

boundaryField
{
    leftWall
    {
        type            fixedValue;
        value           uniform 273.15;
    }
    rightWall
    {
        type            customNeumannDirichletCoupledBoundary;
        refValue        nonuniform List<scalar> 10(274.127 274.128 274.13 274.132 274.134 274.136 274.138 274.14 274.141 274.143);
        refGradient     uniform 0;
        valueFraction   uniform 1;
        source          uniform 0;
        value           nonuniform List<scalar> 10(274.127 274.128 274.13 274.132 274.134 274.136 274.138 274.14 274.141 274.143);
        kappaMethod     fluidThermo;
    }
    topWall
    {
        type            zeroGradient;
    }
    bottomWall
    {
        type            zeroGradient;
    }
    frontAndBackPlanes
    {
        type            empty;
    }
}


// ************************************************************************* //
