/*--------------------------------*- C++ -*----------------------------------*\
| =========                 |                                                 |
| \\      /  F ield         | OpenFOAM: The Open Source CFD Toolbox           |
|  \\    /   O peration     | Version:  2506                                  |
|   \\  /    A nd           | Website:  www.openfoam.com                      |
|    \\/     M anipulation  |                                                 |
\*---------------------------------------------------------------------------*/
FoamFile
{
    version     2.0;
    format      ascii;
    arch        "LSB;label=32;scalar=64";
    class       volScalarField;
    location    "54";
    object      p_rgh;
}
// * * * * * * * * * * * * * * * * * * * * * * * * * * * * * * * * * * * * * //

dimensions      [1 -1 -2 0 0 0 0];

internalField   nonuniform List<scalar> 
200
(
100000
100000
100000
100000
100000
100000
100000
100000
100000
100000
99999.9
99999.9
99999.9
99999.8
99999.7
99999.6
99999.4
99999.2
99998.8
99998.2
100000
100000
100000
100000
100000
100000
100000
100000
99999.9
99999.9
99999.9
99999.9
99999.8
99999.8
99999.8
99999.7
99999.6
99999.3
99998.5
99997
100000
100000
100000
99999.9
99999.9
99999.8
99999.8
99999.8
99999.8
99999.8
99999.7
99999.7
99999.7
99999.7
99999.7
99999.7
99999.5
99999.1
99997.8
99995.3
100000
100000
99999.8
99999.6
99999.5
99999.5
99999.5
99999.5
99999.5
99999.5
99999.5
99999.5
99999.5
99999.6
99999.6
99999.6
99999.4
99998.7
99996.9
99993.4
100000
99999.9
99999.5
99999.2
99999
99999
99999
99999
99999
99999
99999
99999.1
99999.2
99999.3
99999.4
99999.4
99999.1
99998.1
99995.7
99991.4
100001
99999.7
99999
99998.6
99998.4
99998.3
99998.2
99998.3
99998.3
99998.3
99998.4
99998.4
99998.6
99998.8
99999
99998.9
99998.4
99997
99994.1
99989.4
100001
99999.5
99998.4
99997.8
99997.5
99997.3
99997.3
99997.2
99997.2
99997.2
99997.2
99997.3
99997.5
99997.6
99997.8
99997.6
99997
99995.5
99992.4
99987.5
100001
99999.2
99997.7
99996.8
99996.3
99996.1
99995.9
99995.7
99995.6
99995.5
99995.4
99995.4
99995.4
99995.4
99995.4
99995.3
99994.7
99993.2
99990.3
99985.6
100002
99998.8
99996.8
99995.7
99995
99994.5
99994.1
99993.7
99993.4
99993.1
99992.9
99992.6
99992.4
99992.3
99992.1
99991.9
99991.4
99990.2
99987.9
99984
100002
99998.5
99996.3
99994.9
99994
99993.4
99992.8
99992.4
99991.9
99991.4
99990.9
99990.5
99990
99989.6
99989.2
99988.7
99988.1
99987.1
99985.4
99982.6
)
;

boundaryField
{
    leftWall
    {
        type            fixedFluxPressure;
        gradient        nonuniform List<scalar> 10(0.0562436 0.540481 2.11215 5.42473 10.9463 19.0115 30.0642 45.4818 65.4937 83.528);
        value           nonuniform List<scalar> 10(100000 100000 100000 100000 100001 100001 100002 100002 100003 100004);
    }
    rightWall
    {
        type            fixedFluxPressure;
        gradient        nonuniform List<scalar> 10(-17.3275 -48.1914 -72.3872 -90.9418 -103.943 -112.983 -117.241 -113.371 -97.7368 -73.2726);
        value           nonuniform List<scalar> 10(99997.7 99995.8 99993.5 99991.1 99988.8 99986.5 99984.5 99982.8 99981.5 99980.8);
    }
    topWall
    {
        type            fixedFluxPressure;
        gradient        uniform 0;
        value           nonuniform List<scalar> 
20
(
100000
100000
100000
100000
100000
100000
100000
100000
100000
100000
99999.9
99999.9
99999.9
99999.8
99999.7
99999.6
99999.4
99999.2
99998.8
99998.2
)
;
    }
    bottomWall
    {
        type            fixedFluxPressure;
        gradient        uniform 0;
        value           nonuniform List<scalar> 
20
(
100002
99998.5
99996.3
99994.9
99994
99993.4
99992.8
99992.4
99991.9
99991.4
99990.9
99990.5
99990
99989.6
99989.2
99988.7
99988.1
99987.1
99985.4
99982.6
)
;
    }
    frontAndBackPlanes
    {
        type            empty;
    }
}


// ************************************************************************* //
