/*--------------------------------*- C++ -*----------------------------------*\
| =========                 |                                                 |
| \\      /  F ield         | OpenFOAM: The Open Source CFD Toolbox           |
|  \\    /   O peration     | Version:  2506                                  |
|   \\  /    A nd           | Website:  www.openfoam.com                      |
|    \\/     M anipulation  |                                                 |
\*---------------------------------------------------------------------------*/
FoamFile
{
    version     2.0;
    format      ascii;
    arch        "LSB;label=32;scalar=64";
    class       surfaceScalarField;
    location    "54";
    object      phi;
}
// * * * * * * * * * * * * * * * * * * * * * * * * * * * * * * * * * * * * * //

dimensions      [1 0 -1 0 0 0 0];

oriented        oriented;

internalField   nonuniform List<scalar> 
370
(
3.26456e-05
-0.000110978
0.000237937
-0.000205242
0.000466872
-0.000228861
0.000682542
-0.000215578
0.000870134
-0.000187491
0.00103144
-0.000161202
0.00117734
-0.000145778
0.00132225
-0.000144802
0.00148132
-0.000158945
0.001669
-0.000187551
0.00189819
-0.000229061
0.00217857
-0.000280247
0.00251237
-0.000333657
0.00288621
-0.000373693
0.00325679
-0.00037043
0.00352651
-0.00026957
0.00349554
3.112e-05
0.00294184
0.000553856
0.00162401
0.00131797
0.00162409
0.00018448
-0.000295423
0.000561905
-0.000582567
0.00099327
-0.000660078
0.00140221
-0.000624346
0.00176094
-0.000546028
0.002069
-0.000469072
0.00233943
-0.000416003
0.00258996
-0.000395134
0.00283792
-0.000406702
0.00309716
-0.000446579
0.00337558
-0.000507263
0.00367157
-0.000576008
0.00396804
-0.000629902
0.00422268
-0.000628089
0.00435477
-0.000502282
0.00423595
-0.000150511
0.00371526
0.000552044
0.00261606
0.00165328
0.00107799
0.00285625
0.00270218
0.000252984
-0.000548343
0.000719359
-0.00104876
0.00122542
-0.00116588
0.00168563
-0.00108425
0.0020729
-0.000932979
0.00239073
-0.000786576
0.00265488
-0.000679831
0.00288319
-0.000623124
0.00309058
-0.000613761
0.00328672
-0.000642399
0.00347449
-0.000694691
0.00364716
-0.000748332
0.00378338
-0.00076577
0.00383963
-0.000683976
0.00374345
-0.00040575
0.00339715
0.000196133
0.0027189
0.00123062
0.00171097
0.00266151
0.000607123
0.00396036
0.00330944
0.000279852
-0.000828099
0.00076452
-0.00153317
0.00125511
-0.0016561
0.00166877
-0.00149749
0.00198913
-0.00125289
0.00222943
-0.00102643
0.00241089
-0.000860845
0.00255251
-0.000764314
0.00266777
-0.000728586
0.00276436
-0.000738543
0.00284437
-0.000774254
0.00290299
-0.000806498
0.00292457
-0.00078689
0.00287663
-0.000635567
0.00270601
-0.000234667
0.00234782
0.000554771
0.00176724
0.00181162
0.00101528
0.00341385
0.000303967
0.004672
0.00361356
0.000275713
-0.00110369
0.000709141
-0.00196626
0.00110256
-0.00204905
0.00139219
-0.00178659
0.00158142
-0.00144159
0.00169628
-0.00114075
0.00176287
-0.000926911
0.00179982
-0.000800751
0.00181827
-0.000746519
0.00182415
-0.000743901
0.00181974
-0.000769311
0.00180293
-0.000789132
0.00176401
-0.000747407
0.00168154
-0.000552528
0.00152045
-7.30227e-05
0.00124116
0.0008346
0.000840028
0.00221324
0.000391362
0.00386297
6.11019e-05
0.00500262
0.00367482
0.000228227
-0.00133177
0.000522661
-0.00226031
0.000725569
-0.00225142
0.000814362
-0.0018748
0.000820158
-0.00144679
0.000779457
-0.00109947
0.000717484
-0.000864366
0.00064772
-0.000730418
0.000576382
-0.00067461
0.000506303
-0.000673239
0.000438079
-0.000700486
0.000368715
-0.000719148
0.000289619
-0.000667674
0.000186962
-0.000449224
4.78942e-05
6.66897e-05
-0.0001163
0.000999414
-0.000265774
0.00236329
-0.000321057
0.00391876
-0.000206546
0.00488849
0.00346843
0.000109284
-0.00144089
0.000136286
-0.00228687
3.10049e-05
-0.00214556
-0.000158487
-0.00168468
-0.000377903
-0.00122675
-0.000593158
-0.000883614
-0.000790436
-0.000666496
-0.000967483
-0.000552776
-0.00112634
-0.000515152
-0.00127007
-0.000528895
-0.0014025
-0.000567423
-0.00152846
-0.00059255
-0.0016514
-0.000544075
-0.00176574
-0.000334217
-0.00184148
0.000143096
-0.00181285
0.000971434
-0.001601
0.00215202
-0.0011479
0.00346617
-0.000501819
0.00424277
0.00296676
-0.000130626
-0.00131007
-0.000526043
-0.00189096
-0.0010432
-0.00162778
-0.0015545
-0.00117275
-0.00200051
-0.000780129
-0.00237054
-0.000512993
-0.00267571
-0.000360739
-0.00293314
-0.000294764
-0.00315887
-0.000288839
-0.0033656
-0.000321575
-0.00356145
-0.000370982
-0.00374654
-0.000406871
-0.00390567
-0.000384344
-0.00399761
-0.000241667
-0.00394658
9.26733e-05
-0.00365008
0.000675517
-0.00301429
0.00151678
-0.00201304
0.00246539
-0.000813407
0.00304348
0.00215349
-0.000502666
-0.00080718
-0.00141558
-0.000977525
-0.00231507
-0.000727672
-0.00303594
-0.000451267
-0.00356517
-0.000250317
-0.00394528
-0.000132332
-0.0042281
-7.73849e-05
-0.00445792
-6.44231e-05
-0.00466759
-7.86683e-05
-0.00487866
-0.000110001
-0.00510042
-0.000148733
-0.00532481
-0.000181992
-0.00551776
-0.000190903
-0.00560995
-0.000149001
-0.00549741
-1.93897e-05
-0.00504322
0.000221791
-0.004128
0.00060201
-0.00272758
0.00106536
-0.00108053
0.00139672
0.00107309
-0.000806932
-0.00178391
-0.00251095
-0.00296161
-0.00321137
-0.0033432
-0.00342012
-0.0034841
-0.00356235
-0.00367195
-0.00382029
-0.00400191
-0.00419245
-0.0043411
-0.00436016
-0.00413804
-0.00353573
-0.0024701
-0.00107318
)
;

boundaryField
{
    leftWall
    {
        type            calculated;
        value           uniform 0;
    }
    rightWall
    {
        type            calculated;
        value           nonuniform List<scalar> 10(-1.0842e-19 0 0 0 0 0 0 0 0 0);
    }
    topWall
    {
        type            calculated;
        value           uniform 0;
    }
    bottomWall
    {
        type            calculated;
        value           uniform 0;
    }
    frontAndBackPlanes
    {
        type            empty;
    }
}


// ************************************************************************* //
