/*--------------------------------*- C++ -*----------------------------------*\
| =========                 |                                                 |
| \\      /  F ield         | OpenFOAM: The Open Source CFD Toolbox           |
|  \\    /   O peration     | Version:  2506                                  |
|   \\  /    A nd           | Website:  www.openfoam.com                      |
|    \\/     M anipulation  |                                                 |
\*---------------------------------------------------------------------------*/
FoamFile
{
    version     2.0;
    format      ascii;
    arch        "LSB;label=32;scalar=64";
    class       volScalarField;
    location    "54";
    object      T;
}
// * * * * * * * * * * * * * * * * * * * * * * * * * * * * * * * * * * * * * //

dimensions      [0 0 0 1 0 0 0];

internalField   nonuniform List<scalar> 
200
(
273.151
273.153
273.155
273.156
273.157
273.157
273.157
273.157
273.157
273.158
273.158
273.158
273.159
273.16
273.163
273.171
273.193
273.256
273.421
273.801
273.153
273.16
273.165
273.169
273.172
273.173
273.173
273.173
273.173
273.174
273.174
273.174
273.174
273.174
273.174
273.179
273.198
273.261
273.435
273.826
273.158
273.173
273.186
273.194
273.199
273.202
273.202
273.202
273.202
273.201
273.201
273.2
273.198
273.195
273.192
273.195
273.215
273.284
273.469
273.857
273.165
273.192
273.215
273.229
273.237
273.241
273.242
273.241
273.239
273.238
273.236
273.232
273.228
273.221
273.214
273.215
273.237
273.314
273.51
273.887
273.173
273.216
273.25
273.272
273.283
273.287
273.288
273.286
273.284
273.281
273.277
273.272
273.263
273.252
273.241
273.241
273.267
273.354
273.557
273.916
273.182
273.243
273.29
273.32
273.334
273.34
273.34
273.338
273.336
273.333
273.329
273.322
273.311
273.296
273.282
273.285
273.32
273.416
273.615
273.942
273.193
273.274
273.335
273.372
273.39
273.397
273.399
273.4
273.401
273.401
273.399
273.394
273.385
273.374
273.367
273.375
273.412
273.504
273.682
273.967
273.207
273.31
273.383
273.427
273.45
273.463
273.472
273.48
273.488
273.494
273.499
273.5
273.5
273.497
273.498
273.508
273.541
273.618
273.763
273.997
273.222
273.344
273.428
273.481
273.514
273.537
273.556
273.573
273.589
273.604
273.617
273.629
273.64
273.649
273.658
273.671
273.699
273.756
273.861
274.033
273.232
273.363
273.452
273.511
273.55
273.581
273.606
273.63
273.653
273.675
273.697
273.719
273.74
273.763
273.785
273.809
273.839
273.885
273.957
274.07
)
;

boundaryField
{
    leftWall
    {
        type            fixedValue;
        value           uniform 273.15;
    }
    rightWall
    {
        type            customNeumannDirichletCoupledBoundary;
        refValue        nonuniform List<scalar> 10(274.126 274.127 274.129 274.131 274.133 274.135 274.137 274.139 274.14 274.142);
        refGradient     uniform 0;
        valueFraction   uniform 1;
        source          uniform 0;
        value           nonuniform List<scalar> 10(274.126 274.127 274.129 274.131 274.133 274.135 274.137 274.139 274.14 274.142);
        kappaMethod     fluidThermo;
    }
    topWall
    {
        type            zeroGradient;
    }
    bottomWall
    {
        type            zeroGradient;
    }
    frontAndBackPlanes
    {
        type            empty;
    }
}


// ************************************************************************* //
