/*--------------------------------*- C++ -*----------------------------------*\
| =========                 |                                                 |
| \\      /  F ield         | OpenFOAM: The Open Source CFD Toolbox           |
|  \\    /   O peration     | Version:  2506                                  |
|   \\  /    A nd           | Website:  www.openfoam.com                      |
|    \\/     M anipulation  |                                                 |
\*---------------------------------------------------------------------------*/
FoamFile
{
    version     2.0;
    format      ascii;
    arch        "LSB;label=32;scalar=64";
    class       surfaceScalarField;
    location    "109";
    object      phi;
}
// * * * * * * * * * * * * * * * * * * * * * * * * * * * * * * * * * * * * * //

dimensions      [1 0 -1 0 0 0 0];

oriented        oriented;

internalField   nonuniform List<scalar> 
370
(
0.000283942
-0.000323816
0.000768098
-0.000484087
0.0011933
-0.000425101
0.00149127
-0.000297848
0.00166862
-0.000177213
0.00176152
-9.2742e-05
0.00181075
-4.90712e-05
0.00185065
-3.97256e-05
0.00190643
-5.56077e-05
0.00199525
-8.86334e-05
0.00212822
-0.000132769
0.00231186
-0.000183441
0.00254704
-0.000234974
0.00282272
-0.000275475
0.00310208
-0.000279139
0.00329676
-0.000194463
0.00323053
6.64549e-05
0.00268869
0.000542057
0.00146343
0.00122545
0.00146353
0.000412757
-0.000736537
0.00111186
-0.0011831
0.00178546
-0.00109856
0.00231185
-0.000824085
0.00267657
-0.000541755
0.00291241
-0.000328402
0.00306544
-0.00020192
0.00317813
-0.000152221
0.00328237
-0.000159654
0.00339835
-0.000204413
0.00353548
-0.000269701
0.00369247
-0.000340224
0.00385431
-0.000396607
0.00398504
-0.000405985
0.0040159
-0.000309779
0.00383824
-1.65783e-05
0.00331223
0.000592694
0.00229928
0.00155523
0.000930947
0.00259398
0.00239458
0.000409085
-0.00114558
0.00107997
-0.00185386
0.00172261
-0.00174102
0.0022285
-0.00132977
0.00258687
-0.000899911
0.00282724
-0.000568546
0.002988
-0.000362454
0.00310224
-0.000266244
0.00319312
-0.000250312
0.00327362
-0.000284689
0.00334741
-0.000343265
0.00340857
-0.000401153
0.00343872
-0.000426526
0.00340169
-0.000368718
0.00323907
-0.00014693
0.00287326
0.00034948
0.00225011
0.00121608
0.00137937
0.00242621
0.000468053
0.00350549
0.00286272
0.000358984
-0.00150451
0.000912021
-0.00240675
0.00140803
-0.00223682
0.00177325
-0.00169475
0.00201667
-0.00114308
0.00217251
-0.000724135
0.00227338
-0.000463078
0.00234172
-0.000334331
0.00238986
-0.000298211
0.00242293
-0.000317511
0.00244098
-0.000361067
0.00243877
-0.000398697
0.00240277
-0.000390286
0.00230678
-0.000272475
0.00211107
4.90357e-05
0.00177623
0.000684584
0.00128613
0.00170644
0.000694585
0.00301799
0.000178694
0.00402158
0.0030415
0.000284467
-0.00178891
0.000664521
-0.00278664
0.000951614
-0.00252369
0.00112188
-0.00186476
0.00120933
-0.00123027
0.00125203
-0.000766561
0.00127414
-0.000484936
0.00128597
-0.000345902
0.00128968
-0.000301667
0.00128466
-0.000312238
0.00126969
-0.00034584
0.00124171
-0.000370468
0.00119223
-0.000340549
0.00110397
-0.00018396
0.000952248
0.00020102
0.000721368
0.000915729
0.000422857
0.00200521
0.000128729
0.00331236
-3.31503e-05
0.00418366
0.00300843
0.000181813
-0.00197066
0.000329687
-0.00293434
0.000355644
-0.00254941
0.000299999
-0.00180885
0.000218251
-0.00114825
0.000142652
-0.000690699
8.23128e-05
-0.00042434
3.42268e-05
-0.000297563
-7.2204e-06
-0.00025997
-4.58212e-05
-0.000273387
-8.37081e-05
-0.000307704
-0.000124014
-0.000329912
-0.000173238
-0.000291071
-0.000240332
-0.000116607
-0.00032861
0.000289565
-0.000425188
0.00101258
-0.000487288
0.00206757
-0.000442273
0.00326759
-0.000239497
0.00398106
0.00276901
1.46915e-05
-0.00198528
-0.000150805
-0.00276865
-0.000441389
-0.00225858
-0.00074776
-0.00150222
-0.0010071
-0.00088866
-0.00120495
-0.00049259
-0.0013515
-0.000277543
-0.00146247
-0.000186351
-0.00155039
-0.000171812
-0.00162321
-0.000200319
-0.00168611
-0.000244566
-0.00174294
-0.00027284
-0.00179468
-0.00023908
-0.00183345
-7.75919e-05
-0.00183092
0.00028729
-0.00174007
0.000921986
-0.00149705
0.0018248
-0.00105154
0.0028223
-0.000450263
0.00337996
0.00231881
-0.000252284
-0.00173292
-0.000848636
-0.0021721
-0.0015064
-0.00160057
-0.00206264
-0.000945734
-0.00247538
-0.000475671
-0.00276356
-0.00020417
-0.0029632
-7.76596e-05
-0.00310629
-4.30267e-05
-0.00321654
-6.13351e-05
-0.0033097
-0.000106931
-0.00339404
-0.000160008
-0.00346926
-0.000197396
-0.00352201
-0.000186106
-0.00351845
-8.09271e-05
-0.00340111
0.00017017
-0.00309373
0.000614832
-0.00252299
0.00125428
-0.00166805
0.00196755
-0.000667333
0.00237938
0.00165153
-0.00066979
-0.00106304
-0.00176592
-0.00107577
-0.00271602
-0.000650234
-0.00336894
-0.000292574
-0.00376349
-8.0883e-05
-0.00398424
1.68199e-05
-0.0041119
5.02135e-05
-0.00419482
4.01087e-05
-0.00426544
9.49772e-06
-0.00434431
-2.7863e-05
-0.0044369
-6.72306e-05
-0.00453527
-9.88349e-05
-0.00461203
-0.000109163
-0.00461361
-7.91662e-05
-0.0044616
1.833e-05
-0.00404867
0.000202075
-0.00328424
0.00049001
-0.00215216
0.000835626
-0.000845222
0.00107255
0.000806359
-0.00106294
-0.00213851
-0.00278851
-0.00308084
-0.00316149
-0.00314446
-0.00309404
-0.00305373
-0.00304405
-0.00307174
-0.0031388
-0.00323748
-0.0033465
-0.00342552
-0.00340706
-0.00320487
-0.00271474
-0.00187902
-0.000806392
)
;

boundaryField
{
    leftWall
    {
        type            calculated;
        value           nonuniform List<scalar> 10(-3.38813e-21 0 0 1.0842e-19 0 0 0 0 0 0);
    }
    rightWall
    {
        type            calculated;
        value           nonuniform List<scalar> 10(0 0 0 4.33681e-19 0 0 0 0 0 0);
    }
    topWall
    {
        type            calculated;
        value           uniform 0;
    }
    bottomWall
    {
        type            calculated;
        value           uniform 0;
    }
    frontAndBackPlanes
    {
        type            empty;
    }
}


// ************************************************************************* //
