/*--------------------------------*- C++ -*----------------------------------*\
| =========                 |                                                 |
| \\      /  F ield         | OpenFOAM: The Open Source CFD Toolbox           |
|  \\    /   O peration     | Version:  2506                                  |
|   \\  /    A nd           | Website:  www.openfoam.com                      |
|    \\/     M anipulation  |                                                 |
\*---------------------------------------------------------------------------*/
FoamFile
{
    version     2.0;
    format      ascii;
    arch        "LSB;label=32;scalar=64";
    class       volScalarField;
    location    "109";
    object      T;
}
// * * * * * * * * * * * * * * * * * * * * * * * * * * * * * * * * * * * * * //

dimensions      [0 0 0 1 0 0 0];

internalField   nonuniform List<scalar> 
200
(
273.163
273.187
273.205
273.217
273.225
273.23
273.234
273.237
273.239
273.242
273.245
273.249
273.252
273.256
273.261
273.271
273.294
273.356
273.511
273.851
273.172
273.212
273.24
273.257
273.267
273.271
273.273
273.275
273.276
273.278
273.28
273.283
273.286
273.288
273.29
273.296
273.315
273.376
273.535
273.877
273.185
273.248
273.292
273.318
273.33
273.335
273.336
273.335
273.335
273.335
273.335
273.336
273.336
273.335
273.333
273.336
273.354
273.415
273.58
273.91
273.199
273.286
273.347
273.382
273.398
273.403
273.402
273.4
273.397
273.395
273.393
273.391
273.388
273.383
273.377
273.377
273.394
273.46
273.628
273.941
273.213
273.324
273.402
273.444
273.462
273.467
273.464
273.46
273.456
273.452
273.449
273.445
273.439
273.43
273.421
273.419
273.439
273.512
273.681
273.968
273.227
273.364
273.456
273.504
273.522
273.525
273.521
273.516
273.512
273.509
273.506
273.501
273.493
273.482
273.474
273.475
273.502
273.578
273.737
273.991
273.243
273.406
273.511
273.56
273.577
273.58
273.578
273.577
273.576
273.576
273.575
273.571
273.565
273.558
273.554
273.56
273.588
273.659
273.797
274.013
273.263
273.451
273.561
273.612
273.633
273.641
273.645
273.65
273.655
273.66
273.663
273.665
273.664
273.663
273.663
273.672
273.698
273.756
273.866
274.039
273.286
273.491
273.606
273.662
273.689
273.706
273.718
273.729
273.739
273.749
273.759
273.767
273.775
273.782
273.789
273.8
273.822
273.865
273.943
274.068
273.301
273.512
273.628
273.687
273.719
273.74
273.756
273.771
273.786
273.802
273.817
273.832
273.848
273.865
273.882
273.9
273.925
273.96
274.014
274.095
)
;

boundaryField
{
    leftWall
    {
        type            fixedValue;
        value           uniform 273.15;
    }
    rightWall
    {
        type            customNeumannDirichletCoupledBoundary;
        refValue        nonuniform List<scalar> 10(274.129 274.131 274.132 274.134 274.136 274.138 274.14 274.142 274.143 274.144);
        refGradient     uniform 0;
        valueFraction   uniform 1;
        source          uniform 0;
        value           nonuniform List<scalar> 10(274.129 274.131 274.132 274.134 274.136 274.138 274.14 274.142 274.143 274.144);
        kappaMethod     fluidThermo;
    }
    topWall
    {
        type            zeroGradient;
    }
    bottomWall
    {
        type            zeroGradient;
    }
    frontAndBackPlanes
    {
        type            empty;
    }
}


// ************************************************************************* //
