/*--------------------------------*- C++ -*----------------------------------*\
| =========                 |                                                 |
| \\      /  F ield         | OpenFOAM: The Open Source CFD Toolbox           |
|  \\    /   O peration     | Version:  2506                                  |
|   \\  /    A nd           | Website:  www.openfoam.com                      |
|    \\/     M anipulation  |                                                 |
\*---------------------------------------------------------------------------*/
FoamFile
{
    version     2.0;
    format      ascii;
    arch        "LSB;label=32;scalar=64";
    class       volScalarField;
    location    "24";
    object      p_rgh;
}
// * * * * * * * * * * * * * * * * * * * * * * * * * * * * * * * * * * * * * //

dimensions      [1 -1 -2 0 0 0 0];

internalField   nonuniform List<scalar> 
200
(
100000
100000
100000
100000
100000
100000
100000
100000
100000
100000
100000
99999.9
99999.9
99999.8
99999.7
99999.6
99999.4
99999.2
99998.8
99998.2
100000
100000
100000
100000
100000
100000
100000
100000
100000
100000
100000
99999.9
99999.9
99999.8
99999.8
99999.7
99999.6
99999.3
99998.6
99997
100000
100000
100000
100000
100000
100000
100000
100000
100000
100000
100000
100000
99999.9
99999.9
99999.8
99999.8
99999.6
99999.2
99998
99995.3
100000
100000
100000
100000
100000
100000
100000
100000
100000
100000
100000
99999.9
99999.9
99999.9
99999.9
99999.8
99999.6
99998.9
99997
99993.3
100000
100000
100000
100000
100000
100000
100000
100000
100000
99999.9
99999.9
99999.9
99999.9
99999.9
99999.8
99999.7
99999.4
99998.3
99995.8
99991.1
100000
100000
100000
100000
100000
100000
100000
99999.9
99999.8
99999.6
99999.6
99999.6
99999.6
99999.7
99999.7
99999.5
99998.9
99997.5
99994.2
99988.7
100000
100000
100001
100001
100000
100000
99999.9
99999.5
99999.1
99998.9
99998.8
99998.8
99998.9
99999
99998.9
99998.6
99997.8
99995.9
99992.3
99986.5
100000
100001
100001
100001
100000
99999.9
99999.2
99998.5
99997.9
99997.5
99997.2
99997.2
99997.1
99997.1
99996.9
99996.5
99995.6
99993.6
99990.1
99984.4
100001
100001
100001
100001
100000
99999.4
99998.2
99997
99996
99995.2
99994.6
99994.2
99993.9
99993.7
99993.4
99993
99992.1
99990.4
99987.4
99982.5
100001
100001
100001
100001
100000
99999.4
99998.1
99996.5
99995
99993.7
99992.6
99991.6
99990.9
99990.3
99989.7
99989.1
99988.2
99986.9
99984.6
99980.9
)
;

boundaryField
{
    leftWall
    {
        type            fixedFluxPressure;
        gradient        nonuniform List<scalar> 10(-0.0259524 -0.121314 -0.325338 -0.653856 -1.14136 -1.84607 -2.85776 -4.34325 -6.08143 -7.46879);
        value           nonuniform List<scalar> 10(100000 100000 100000 100000 100000 100000 100000 100000 100000 100000);
    }
    rightWall
    {
        type            fixedFluxPressure;
        gradient        nonuniform List<scalar> 10(-17.8677 -51.0607 -79.1524 -102.517 -120.275 -131.071 -138.357 -137.862 -124.573 -98.8986);
        value           nonuniform List<scalar> 10(99997.7 99995.7 99993.3 99990.7 99988.1 99985.5 99983.1 99981 99979.4 99978.4);
    }
    topWall
    {
        type            fixedFluxPressure;
        gradient        uniform 0;
        value           nonuniform List<scalar> 
20
(
100000
100000
100000
100000
100000
100000
100000
100000
100000
100000
100000
99999.9
99999.9
99999.8
99999.7
99999.6
99999.4
99999.2
99998.8
99998.2
)
;
    }
    bottomWall
    {
        type            fixedFluxPressure;
        gradient        uniform 0;
        value           nonuniform List<scalar> 
20
(
100001
100001
100001
100001
100000
99999.4
99998.1
99996.5
99995
99993.7
99992.6
99991.6
99990.9
99990.3
99989.7
99989.1
99988.2
99986.9
99984.6
99980.9
)
;
    }
    frontAndBackPlanes
    {
        type            empty;
    }
}


// ************************************************************************* //
