/*--------------------------------*- C++ -*----------------------------------*\
| =========                 |                                                 |
| \\      /  F ield         | OpenFOAM: The Open Source CFD Toolbox           |
|  \\    /   O peration     | Version:  2506                                  |
|   \\  /    A nd           | Website:  www.openfoam.com                      |
|    \\/     M anipulation  |                                                 |
\*---------------------------------------------------------------------------*/
FoamFile
{
    version     2.0;
    format      ascii;
    arch        "LSB;label=32;scalar=64";
    class       volScalarField;
    location    "24";
    object      T;
}
// * * * * * * * * * * * * * * * * * * * * * * * * * * * * * * * * * * * * * //

dimensions      [0 0 0 1 0 0 0];

internalField   nonuniform List<scalar> 
200
(
273.15
273.149
273.148
273.147
273.146
273.146
273.146
273.146
273.145
273.145
273.145
273.146
273.146
273.147
273.15
273.157
273.178
273.239
273.403
273.79
273.149
273.148
273.146
273.145
273.144
273.144
273.143
273.143
273.143
273.143
273.143
273.143
273.143
273.144
273.145
273.151
273.17
273.229
273.402
273.806
273.149
273.146
273.144
273.142
273.141
273.14
273.139
273.139
273.139
273.139
273.14
273.14
273.14
273.14
273.142
273.147
273.168
273.235
273.422
273.83
273.148
273.145
273.142
273.139
273.137
273.136
273.136
273.137
273.138
273.139
273.139
273.139
273.139
273.138
273.14
273.147
273.172
273.248
273.447
273.854
273.148
273.143
273.138
273.135
273.133
273.134
273.136
273.139
273.143
273.146
273.147
273.146
273.144
273.142
273.143
273.151
273.183
273.27
273.482
273.88
273.147
273.14
273.135
273.131
273.131
273.135
273.143
273.152
273.161
273.167
273.17
273.168
273.162
273.157
273.157
273.17
273.21
273.311
273.534
273.909
273.146
273.138
273.131
273.129
273.133
273.145
273.163
273.184
273.201
273.213
273.217
273.213
273.206
273.203
273.208
273.229
273.279
273.388
273.598
273.935
273.145
273.134
273.128
273.13
273.144
273.17
273.204
273.239
273.268
273.289
273.3
273.305
273.307
273.311
273.322
273.347
273.4
273.5
273.68
273.964
273.143
273.132
273.126
273.134
273.159
273.201
273.254
273.309
273.357
273.396
273.426
273.448
273.465
273.478
273.495
273.521
273.568
273.647
273.783
274.001
273.143
273.13
273.123
273.129
273.154
273.2
273.261
273.328
273.395
273.456
273.508
273.553
273.591
273.625
273.656
273.691
273.735
273.798
273.894
274.042
)
;

boundaryField
{
    leftWall
    {
        type            fixedValue;
        value           uniform 273.15;
    }
    rightWall
    {
        type            customNeumannDirichletCoupledBoundary;
        refValue        nonuniform List<scalar> 10(274.125 274.126 274.127 274.129 274.13 274.132 274.134 274.136 274.138 274.14);
        refGradient     uniform 0;
        valueFraction   uniform 1;
        source          uniform 0;
        value           nonuniform List<scalar> 10(274.125 274.126 274.127 274.129 274.13 274.132 274.134 274.136 274.138 274.14);
        kappaMethod     fluidThermo;
    }
    topWall
    {
        type            zeroGradient;
    }
    bottomWall
    {
        type            zeroGradient;
    }
    frontAndBackPlanes
    {
        type            empty;
    }
}


// ************************************************************************* //
