/*--------------------------------*- C++ -*----------------------------------*\
| =========                 |                                                 |
| \\      /  F ield         | OpenFOAM: The Open Source CFD Toolbox           |
|  \\    /   O peration     | Version:  2506                                  |
|   \\  /    A nd           | Website:  www.openfoam.com                      |
|    \\/     M anipulation  |                                                 |
\*---------------------------------------------------------------------------*/
FoamFile
{
    version     2.0;
    format      ascii;
    arch        "LSB;label=32;scalar=64";
    class       volVectorField;
    location    "24";
    object      U;
}
// * * * * * * * * * * * * * * * * * * * * * * * * * * * * * * * * * * * * * //

dimensions      [0 1 -1 0 0 0 0];

internalField   nonuniform List<vector> 
200
(
(-0.000251876 -8.30488e-05 0)
(-0.000191522 -0.000196068 0)
(0.000386681 -0.000302891 0)
(0.00130209 -0.000447711 0)
(0.00244194 -0.000571997 0)
(0.00377325 -0.000655143 0)
(0.00521849 -0.000698872 0)
(0.00670265 -0.000712739 0)
(0.0081681 -0.000711846 0)
(0.00957957 -0.000714543 0)
(0.0109244 -0.000739204 0)
(0.0122085 -0.000800601 0)
(0.0134446 -0.000904825 0)
(0.0146306 -0.00103825 0)
(0.0157047 -0.00114237 0)
(0.0164502 -0.00105486 0)
(0.0163995 -0.000405357 0)
(0.0147022 0.00139777 0)
(0.0104073 0.00459311 0)
(0.00310396 0.00652893 0)
(1.65875e-05 -0.00048223 0)
(0.000589281 -0.00157983 0)
(0.00184055 -0.00270402 0)
(0.00364759 -0.00373488 0)
(0.00587494 -0.00453898 0)
(0.00838106 -0.00506521 0)
(0.0110193 -0.00531363 0)
(0.0136527 -0.00532154 0)
(0.016166 -0.00515063 0)
(0.0184698 -0.00487089 0)
(0.0204967 -0.00454204 0)
(0.022187 -0.00419283 0)
(0.023468 -0.00379475 0)
(0.024225 -0.00321996 0)
(0.0242623 -0.0021671 0)
(0.0232535 -4.38455e-05 0)
(0.0206672 0.00406805 0)
(0.0159322 0.0109833 0)
(0.00914223 0.0194269 0)
(0.00156726 0.0195504 0)
(9.18831e-05 -0.00127984 0)
(0.0010352 -0.00391551 0)
(0.00273763 -0.00637841 0)
(0.00504646 -0.00843623 0)
(0.00775584 -0.00994189 0)
(0.0106753 -0.0108323 0)
(0.0136265 -0.0111207 0)
(0.0164504 -0.0108824 0)
(0.0190178 -0.0102306 0)
(0.0212319 -0.00928228 0)
(0.0230188 -0.00812063 0)
(0.0243083 -0.00675715 0)
(0.0250083 -0.00509086 0)
(0.0249779 -0.00285746 0)
(0.0239838 0.000441096 0)
(0.0217354 0.00552436 0)
(0.0179714 0.0131688 0)
(0.0126322 0.0235143 0)
(0.00639072 0.0332478 0)
(0.000840639 0.0280821 0)
(0.000120331 -0.00246644 0)
(0.0012471 -0.00694188 0)
(0.00314446 -0.0107732 0)
(0.00560076 -0.013771 0)
(0.00836333 -0.0158016 0)
(0.0112117 -0.0168166 0)
(0.0139505 -0.0168674 0)
(0.0164192 -0.0160958 0)
(0.0185048 -0.0146943 0)
(0.0201433 -0.012848 0)
(0.0213033 -0.0106724 0)
(0.0219593 -0.00815826 0)
(0.0220608 -0.00512362 0)
(0.0215056 -0.0011768 0)
(0.0200683 0.00428057 0)
(0.0175965 0.0119091 0)
(0.013954 0.0222404 0)
(0.00925708 0.0346376 0)
(0.00425824 0.0440659 0)
(0.000448906 0.033639 0)
(0.000138406 -0.00378894 0)
(0.00126163 -0.0101187 0)
(0.00304219 -0.0151912 0)
(0.00524694 -0.0189202 0)
(0.0076157 -0.0212147 0)
(0.00992508 -0.0220619 0)
(0.0119851 -0.0215809 0)
(0.0136587 -0.0200217 0)
(0.0148806 -0.0177006 0)
(0.0156541 -0.0149037 0)
(0.0160247 -0.0117916 0)
(0.0160415 -0.00832646 0)
(0.015716 -0.00422519 0)
(0.0149475 0.0010442 0)
(0.0136193 0.00811884 0)
(0.0116078 0.0176117 0)
(0.00883932 0.0297587 0)
(0.00547767 0.0432073 0)
(0.00217153 0.0516384 0)
(0.000120123 0.0368728 0)
(0.000127003 -0.00500965 0)
(0.000962713 -0.01286 0)
(0.00217912 -0.0188155 0)
(0.00358479 -0.0229391 0)
(0.00497359 -0.0251869 0)
(0.00616224 -0.0255858 0)
(0.00700372 -0.0243505 0)
(0.00742276 -0.0218867 0)
(0.00743687 -0.018681 0)
(0.00714141 -0.0151441 0)
(0.00666525 -0.0114746 0)
(0.00611877 -0.00757202 0)
(0.00555086 -0.00300893 0)
(0.00487666 0.00290892 0)
(0.00405075 0.0108897 0)
(0.00299492 0.0214599 0)
(0.001725 0.0345424 0)
(0.000426447 0.0481684 0)
(-0.00044017 0.0552314 0)
(-0.000257389 0.0376051 0)
(5.48786e-05 -0.00570091 0)
(0.000177316 -0.0142181 0)
(0.000221152 -0.020417 0)
(0.000116574 -0.0244746 0)
(-0.000210643 -0.0263515 0)
(-0.000837492 -0.026097 0)
(-0.00180168 -0.0240484 0)
(-0.00306295 -0.02081 0)
(-0.00449785 -0.0170588 0)
(-0.00593606 -0.0133014 0)
(-0.00721484 -0.00970448 0)
(-0.00822214 -0.00603533 0)
(-0.00890747 -0.00170403 0)
(-0.0092738 0.00407612 0)
(-0.00925467 0.0119944 0)
(-0.00881323 0.0224445 0)
(-0.0078216 0.0350664 0)
(-0.00611513 0.0475884 0)
(-0.00369207 0.0531201 0)
(-0.000725108 0.0351694 0)
(-0.00011039 -0.00525497 0)
(-0.00115304 -0.0129806 0)
(-0.00289831 -0.0184817 0)
(-0.0052063 -0.0218767 0)
(-0.00791221 -0.0230844 0)
(-0.0108839 -0.0221959 0)
(-0.0139748 -0.0196729 0)
(-0.0170103 -0.0162628 0)
(-0.0198093 -0.0127167 0)
(-0.0222177 -0.00951157 0)
(-0.0241264 -0.00671373 0)
(-0.0254633 -0.00399085 0)
(-0.0261527 -0.000721035 0)
(-0.0260235 0.00383192 0)
(-0.024897 0.0103058 0)
(-0.0225657 0.0190181 0)
(-0.0188023 0.0295488 0)
(-0.0135591 0.0398264 0)
(-0.00737832 0.0440572 0)
(-0.00126248 0.028902 0)
(-0.000284821 -0.00332044 0)
(-0.00242551 -0.00846517 0)
(-0.00594351 -0.0122252 0)
(-0.0104387 -0.0144598 0)
(-0.0154309 -0.0150042 0)
(-0.0204857 -0.013949 0)
(-0.0252272 -0.0117557 0)
(-0.0293834 -0.00910976 0)
(-0.0328183 -0.006638 0)
(-0.0355172 -0.00468693 0)
(-0.0375252 -0.00325529 0)
(-0.0388659 -0.00204798 0)
(-0.039462 -0.000578483 0)
(-0.0390587 0.00173183 0)
(-0.0373138 0.00544169 0)
(-0.0337847 0.0108502 0)
(-0.02805 0.0177038 0)
(-0.0200539 0.0246303 0)
(-0.0107125 0.0278635 0)
(-0.0017953 0.0187183 0)
(-0.000240448 -0.000677684 0)
(-0.00195583 -0.00179571 0)
(-0.00513092 -0.00265415 0)
(-0.00930575 -0.0031548 0)
(-0.0139108 -0.00320673 0)
(-0.018378 -0.00282299 0)
(-0.0222468 -0.00215724 0)
(-0.0252724 -0.0014358 0)
(-0.0274515 -0.000854159 0)
(-0.0289498 -0.000513018 0)
(-0.0299877 -0.000410694 0)
(-0.0307323 -0.000465983 0)
(-0.0312198 -0.000542241 0)
(-0.0313031 -0.000453694 0)
(-0.0306283 4.42075e-05 0)
(-0.0286358 0.00116061 0)
(-0.0246872 0.00297379 0)
(-0.0184167 0.00523719 0)
(-0.010456 0.00691706 0)
(-0.00246408 0.00542055 0)
)
;

boundaryField
{
    leftWall
    {
        type            fixedValue;
        value           uniform (0 0 0);
    }
    rightWall
    {
        type            fixedValue;
        value           uniform (0 0 0);
    }
    topWall
    {
        type            fixedValue;
        value           uniform (0 0 0);
    }
    bottomWall
    {
        type            fixedValue;
        value           uniform (0 0 0);
    }
    frontAndBackPlanes
    {
        type            empty;
    }
}


// ************************************************************************* //
