/*--------------------------------*- C++ -*----------------------------------*\
| =========                 |                                                 |
| \\      /  F ield         | OpenFOAM: The Open Source CFD Toolbox           |
|  \\    /   O peration     | Version:  2506                                  |
|   \\  /    A nd           | Website:  www.openfoam.com                      |
|    \\/     M anipulation  |                                                 |
\*---------------------------------------------------------------------------*/
FoamFile
{
    version     2.0;
    format      ascii;
    arch        "LSB;label=32;scalar=64";
    class       volScalarField;
    location    "96";
    object      p_rgh;
}
// * * * * * * * * * * * * * * * * * * * * * * * * * * * * * * * * * * * * * //

dimensions      [1 -1 -2 0 0 0 0];

internalField   nonuniform List<scalar> 
200
(
100000
100000
100000
99999.9
99999.9
99999.8
99999.8
99999.8
99999.7
99999.7
99999.6
99999.6
99999.6
99999.5
99999.4
99999.3
99999.1
99998.9
99998.5
99997.9
100000
100000
99999.9
99999.8
99999.8
99999.7
99999.7
99999.7
99999.6
99999.6
99999.6
99999.5
99999.5
99999.4
99999.4
99999.3
99999.2
99998.9
99998.2
99996.9
100000
99999.9
99999.7
99999.5
99999.4
99999.4
99999.3
99999.3
99999.3
99999.3
99999.3
99999.3
99999.3
99999.3
99999.2
99999.2
99999.1
99998.7
99997.5
99995.3
100001
99999.9
99999.3
99999
99998.9
99998.8
99998.8
99998.8
99998.8
99998.8
99998.9
99998.9
99998.9
99998.9
99999
99999
99998.8
99998.2
99996.6
99993.6
100001
99999.7
99998.9
99998.4
99998.2
99998.1
99998.1
99998.2
99998.2
99998.2
99998.3
99998.3
99998.4
99998.5
99998.6
99998.6
99998.4
99997.5
99995.4
99991.8
100001
99999.6
99998.3
99997.6
99997.3
99997.3
99997.3
99997.4
99997.4
99997.5
99997.5
99997.6
99997.7
99997.9
99998
99998
99997.6
99996.4
99994
99990.1
100002
99999.3
99997.6
99996.7
99996.4
99996.4
99996.4
99996.4
99996.4
99996.4
99996.4
99996.5
99996.6
99996.7
99996.8
99996.7
99996.2
99994.9
99992.5
99988.5
100002
99998.9
99996.8
99995.8
99995.3
99995.2
99995.1
99995
99994.9
99994.8
99994.7
99994.7
99994.7
99994.8
99994.8
99994.6
99994.1
99993
99990.7
99987
100003
99998.4
99995.9
99994.7
99994.1
99993.7
99993.5
99993.2
99993
99992.8
99992.6
99992.4
99992.3
99992.2
99992.1
99991.9
99991.4
99990.5
99988.6
99985.6
100003
99998.1
99995.4
99994
99993.3
99992.8
99992.5
99992.1
99991.8
99991.5
99991.1
99990.8
99990.5
99990.1
99989.8
99989.4
99988.9
99988.1
99986.7
99984.6
)
;

boundaryField
{
    leftWall
    {
        type            fixedFluxPressure;
        gradient        nonuniform List<scalar> 10(0.552683 2.92573 7.94976 15.8566 26.651 40.5689 58.4507 83.1319 113.403 141.617);
        value           nonuniform List<scalar> 10(100000 100000 100000 100001 100002 100002 100003 100004 100006 100007);
    }
    rightWall
    {
        type            fixedFluxPressure;
        gradient        nonuniform List<scalar> 10(-15.4537 -42.1994 -61.8937 -75.8171 -84.8419 -91.0786 -92.6947 -87.4245 -73.1841 -53.9323);
        value           nonuniform List<scalar> 10(99997.6 99995.8 99993.8 99991.7 99989.7 99987.8 99986.2 99984.8 99983.8 99983.2);
    }
    topWall
    {
        type            fixedFluxPressure;
        gradient        uniform 0;
        value           nonuniform List<scalar> 
20
(
100000
100000
100000
99999.9
99999.9
99999.8
99999.8
99999.8
99999.7
99999.7
99999.6
99999.6
99999.6
99999.5
99999.4
99999.3
99999.1
99998.9
99998.5
99997.9
)
;
    }
    bottomWall
    {
        type            fixedFluxPressure;
        gradient        uniform 0;
        value           nonuniform List<scalar> 
20
(
100003
99998.1
99995.4
99994
99993.3
99992.8
99992.5
99992.1
99991.8
99991.5
99991.1
99990.8
99990.5
99990.1
99989.8
99989.4
99988.9
99988.1
99986.7
99984.6
)
;
    }
    frontAndBackPlanes
    {
        type            empty;
    }
}


// ************************************************************************* //
