/*--------------------------------*- C++ -*----------------------------------*\
| =========                 |                                                 |
| \\      /  F ield         | OpenFOAM: The Open Source CFD Toolbox           |
|  \\    /   O peration     | Version:  2506                                  |
|   \\  /    A nd           | Website:  www.openfoam.com                      |
|    \\/     M anipulation  |                                                 |
\*---------------------------------------------------------------------------*/
FoamFile
{
    version     2.0;
    format      ascii;
    arch        "LSB;label=32;scalar=64";
    class       volScalarField;
    location    "53";
    object      T;
}
// * * * * * * * * * * * * * * * * * * * * * * * * * * * * * * * * * * * * * //

dimensions      [0 0 0 1 0 0 0];

internalField   nonuniform List<scalar> 
200
(
273.151
273.153
273.154
273.155
273.156
273.156
273.156
273.156
273.156
273.157
273.157
273.157
273.158
273.159
273.162
273.17
273.192
273.255
273.419
273.8
273.153
273.159
273.164
273.168
273.17
273.171
273.172
273.172
273.172
273.172
273.172
273.172
273.172
273.172
273.172
273.177
273.196
273.259
273.433
273.825
273.157
273.172
273.184
273.192
273.197
273.199
273.2
273.2
273.199
273.199
273.198
273.197
273.195
273.192
273.189
273.192
273.212
273.281
273.467
273.856
273.164
273.19
273.211
273.226
273.234
273.237
273.238
273.237
273.236
273.234
273.232
273.229
273.224
273.217
273.211
273.211
273.233
273.311
273.507
273.886
273.172
273.213
273.246
273.267
273.279
273.283
273.283
273.282
273.279
273.276
273.273
273.267
273.259
273.247
273.236
273.236
273.263
273.35
273.554
273.915
273.181
273.24
273.286
273.315
273.329
273.335
273.335
273.333
273.331
273.328
273.324
273.317
273.306
273.291
273.277
273.28
273.315
273.412
273.612
273.941
273.192
273.271
273.33
273.367
273.385
273.392
273.394
273.395
273.396
273.396
273.394
273.389
273.38
273.369
273.362
273.369
273.407
273.499
273.679
273.966
273.205
273.306
273.378
273.422
273.445
273.458
273.467
273.475
273.483
273.489
273.494
273.495
273.495
273.492
273.493
273.503
273.537
273.614
273.76
273.996
273.22
273.34
273.423
273.476
273.509
273.533
273.552
273.569
273.585
273.6
273.613
273.625
273.636
273.645
273.654
273.667
273.695
273.753
273.858
274.032
273.23
273.359
273.447
273.505
273.546
273.577
273.603
273.626
273.649
273.671
273.693
273.715
273.737
273.76
273.782
273.806
273.837
273.882
273.955
274.069
)
;

boundaryField
{
    leftWall
    {
        type            fixedValue;
        value           uniform 273.15;
    }
    rightWall
    {
        type            customNeumannDirichletCoupledBoundary;
        refValue        nonuniform List<scalar> 10(274.126 274.127 274.129 274.131 274.133 274.135 274.136 274.138 274.14 274.142);
        refGradient     uniform 0;
        valueFraction   uniform 1;
        source          uniform 0;
        value           nonuniform List<scalar> 10(274.126 274.127 274.129 274.131 274.133 274.135 274.136 274.138 274.14 274.142);
        kappaMethod     fluidThermo;
    }
    topWall
    {
        type            zeroGradient;
    }
    bottomWall
    {
        type            zeroGradient;
    }
    frontAndBackPlanes
    {
        type            empty;
    }
}


// ************************************************************************* //
