/*--------------------------------*- C++ -*----------------------------------*\
| =========                 |                                                 |
| \\      /  F ield         | OpenFOAM: The Open Source CFD Toolbox           |
|  \\    /   O peration     | Version:  2506                                  |
|   \\  /    A nd           | Website:  www.openfoam.com                      |
|    \\/     M anipulation  |                                                 |
\*---------------------------------------------------------------------------*/
FoamFile
{
    version     2.0;
    format      ascii;
    arch        "LSB;label=32;scalar=64";
    class       volVectorField;
    location    "11.8";
    object      U;
}
// * * * * * * * * * * * * * * * * * * * * * * * * * * * * * * * * * * * * * //

dimensions      [0 1 -1 0 0 0 0];

internalField   nonuniform List<vector> 
200
(
(-0.000255618 -0.000127769 0)
(-0.000299534 -0.000196038 0)
(1.44672e-05 -0.00021473 0)
(0.000503772 -0.000276741 0)
(0.0010984 -0.000345486 0)
(0.00183036 -0.000413179 0)
(0.00269783 -0.00048594 0)
(0.00370184 -0.000569209 0)
(0.00484885 -0.000666827 0)
(0.0061461 -0.000781151 0)
(0.00759591 -0.000912437 0)
(0.00918914 -0.00105728 0)
(0.0108967 -0.0012052 0)
(0.0126547 -0.001331 0)
(0.0143313 -0.00137511 0)
(0.0156475 -0.00119369 0)
(0.0160424 -0.000452939 0)
(0.0146289 0.00143951 0)
(0.01046 0.00470208 0)
(0.00314985 0.00664425 0)
(-2.54626e-05 -0.000279535 0)
(0.000118478 -0.000808695 0)
(0.000605178 -0.00134394 0)
(0.00137131 -0.00188912 0)
(0.00239094 -0.00239929 0)
(0.00364376 -0.00288181 0)
(0.00511208 -0.00335645 0)
(0.00678263 -0.00383833 0)
(0.00864212 -0.00433021 0)
(0.0106683 -0.00481732 0)
(0.0128183 -0.00526184 0)
(0.0150147 -0.00559459 0)
(0.0171267 -0.00569995 0)
(0.0189488 -0.00538652 0)
(0.0201754 -0.0043298 0)
(0.0203676 -0.00197408 0)
(0.0188806 0.0025675 0)
(0.0150267 0.0100505 0)
(0.00882011 0.0190463 0)
(0.00154567 0.0195492 0)
(1.20646e-05 -0.000412735 0)
(0.000233477 -0.00151441 0)
(0.000755606 -0.00269075 0)
(0.00156202 -0.00381078 0)
(0.00262086 -0.00483526 0)
(0.00390479 -0.00577965 0)
(0.00539221 -0.00667287 0)
(0.00706403 -0.00753019 0)
(0.00889643 -0.00833746 0)
(0.0108505 -0.00904009 0)
(0.0128595 -0.00953262 0)
(0.0148137 -0.00964558 0)
(0.0165453 -0.00912594 0)
(0.0178152 -0.00760466 0)
(0.0183043 -0.00454688 0)
(0.0175977 0.000794156 0)
(0.0152744 0.00922159 0)
(0.0111639 0.0207027 0)
(0.00581853 0.0316449 0)
(0.000788387 0.0275596 0)
(4.76461e-06 -0.000628426 0)
(0.000176892 -0.00226226 0)
(0.000587239 -0.00397193 0)
(0.001227 -0.00558575 0)
(0.00207362 -0.00705322 0)
(0.00310548 -0.00839479 0)
(0.00430631 -0.00964596 0)
(0.00566257 -0.0108184 0)
(0.00715595 -0.011876 0)
(0.00875214 -0.0127181 0)
(0.0103874 -0.013166 0)
(0.0119542 -0.0129489 0)
(0.0132898 -0.0116894 0)
(0.0141723 -0.00888544 0)
(0.0143294 -0.00389147 0)
(0.0134368 0.00405183 0)
(0.0112712 0.0154746 0)
(0.00783166 0.0295562 0)
(0.00374521 0.0409185 0)
(0.000417928 0.0324874 0)
(-1.00171e-05 -0.000728884 0)
(3.00277e-05 -0.00270394 0)
(0.000214072 -0.00480071 0)
(0.000545463 -0.00678776 0)
(0.0010193 -0.00859556 0)
(0.00162659 -0.0102497 0)
(0.00236387 -0.0117951 0)
(0.0032334 -0.0132437 0)
(0.00423603 -0.0145399 0)
(0.0053587 -0.0155383 0)
(0.00655961 -0.0159867 0)
(0.00775293 -0.0155149 0)
(0.0087977 -0.0136329 0)
(0.00950111 -0.00974029 0)
(0.00964065 -0.00314753 0)
(0.00896643 0.00683099 0)
(0.00735631 0.0204388 0)
(0.00489152 0.0361484 0)
(0.00212439 0.0472805 0)
(0.000175023 0.0354041 0)
(-2.84325e-05 -0.000644841 0)
(-0.000164305 -0.00270106 0)
(-0.000277986 -0.00498643 0)
(-0.000345653 -0.00718553 0)
(-0.00035549 -0.00920189 0)
(-0.000302621 -0.0110675 0)
(-0.000174274 -0.0128438 0)
(5.3401e-05 -0.0145521 0)
(0.000408925 -0.0161269 0)
(0.000910971 -0.0173829 0)
(0.00155294 -0.017995 0)
(0.00228548 -0.0174882 0)
(0.00300363 -0.0152574 0)
(0.00355428 -0.0106148 0)
(0.00377153 -0.00285741 0)
(0.00347446 0.00859156 0)
(0.00264713 0.0236711 0)
(0.00146246 0.0402416 0)
(0.000315921 0.0507928 0)
(-9.64018e-05 0.0365737 0)
(-4.95459e-05 -0.000345807 0)
(-0.000357991 -0.00218416 0)
(-0.00077472 -0.00442106 0)
(-0.00127349 -0.00662503 0)
(-0.00183385 -0.00866639 0)
(-0.00244175 -0.0105889 0)
(-0.00307139 -0.0124794 0)
(-0.0036811 -0.0143789 0)
(-0.00421783 -0.016226 0)
(-0.00462767 -0.0178126 0)
(-0.00487213 -0.0187503 0)
(-0.00494614 -0.0184646 0)
(-0.00488728 -0.0162386 0)
(-0.0047618 -0.0113078 0)
(-0.00461724 -0.00298785 0)
(-0.00446443 0.00911673 0)
(-0.00415387 0.0245725 0)
(-0.00342295 0.0408384 0)
(-0.00216584 0.050394 0)
(-0.000435952 0.0355201 0)
(-5.39296e-05 0.000115748 0)
(-0.000432125 -0.00122695 0)
(-0.00104809 -0.00313457 0)
(-0.00190466 -0.00505429 0)
(-0.00298928 -0.00683389 0)
(-0.00428726 -0.0085388 0)
(-0.00577274 -0.01029 0)
(-0.00740558 -0.0121616 0)
(-0.00912989 -0.0141146 0)
(-0.0108743 -0.0159422 0)
(-0.0125563 -0.0172257 0)
(-0.0140869 -0.0173338 0)
(-0.0153658 -0.015502 0)
(-0.0162599 -0.0109837 0)
(-0.0165575 -0.00322213 0)
(-0.0158998 0.00793473 0)
(-0.0139369 0.021839 0)
(-0.010436 0.0361317 0)
(-0.00580844 0.0443313 0)
(-0.00100028 0.0311655 0)
(-4.96176e-06 0.000515459 0)
(-0.000182624 -0.000197048 0)
(-0.000718988 -0.00148713 0)
(-0.00167758 -0.0027743 0)
(-0.00304215 -0.00393501 0)
(-0.00478981 -0.00505708 0)
(-0.00691185 -0.00627854 0)
(-0.00941305 -0.00769718 0)
(-0.0122955 -0.00931343 0)
(-0.0155318 -0.010975 0)
(-0.0190327 -0.0123288 0)
(-0.0226118 -0.0128257 0)
(-0.0259548 -0.0118265 0)
(-0.0286062 -0.00877818 0)
(-0.0299673 -0.00335567 0)
(-0.0292107 0.00447579 0)
(-0.0256479 0.0142706 0)
(-0.0191219 0.024461 0)
(-0.0105429 0.0307033 0)
(-0.00182145 0.0222363 0)
(0.000141911 0.000321811 0)
(0.000322172 0.000170366 0)
(0.000138825 -0.000164817 0)
(-0.000459257 -0.000462554 0)
(-0.00143595 -0.000700648 0)
(-0.00274305 -0.000924837 0)
(-0.00439239 -0.00118953 0)
(-0.00644595 -0.00153685 0)
(-0.00899348 -0.00198374 0)
(-0.012112 -0.00250411 0)
(-0.0158006 -0.00300665 0)
(-0.0199017 -0.00333023 0)
(-0.0240458 -0.00328408 0)
(-0.027654 -0.00271681 0)
(-0.0299931 -0.00154394 0)
(-0.030243 0.000316115 0)
(-0.0276013 0.00298698 0)
(-0.0215874 0.00625043 0)
(-0.0128461 0.00886465 0)
(-0.00328251 0.00732072 0)
)
;

boundaryField
{
    leftWall
    {
        type            fixedValue;
        value           uniform (0 0 0);
    }
    rightWall
    {
        type            fixedValue;
        value           uniform (0 0 0);
    }
    topWall
    {
        type            fixedValue;
        value           uniform (0 0 0);
    }
    bottomWall
    {
        type            fixedValue;
        value           uniform (0 0 0);
    }
    frontAndBackPlanes
    {
        type            empty;
    }
}


// ************************************************************************* //
