/*--------------------------------*- C++ -*----------------------------------*\
| =========                 |                                                 |
| \\      /  F ield         | OpenFOAM: The Open Source CFD Toolbox           |
|  \\    /   O peration     | Version:  2506                                  |
|   \\  /    A nd           | Website:  www.openfoam.com                      |
|    \\/     M anipulation  |                                                 |
\*---------------------------------------------------------------------------*/
FoamFile
{
    version     2.0;
    format      ascii;
    arch        "LSB;label=32;scalar=64";
    class       volVectorField;
    location    "142";
    object      U;
}
// * * * * * * * * * * * * * * * * * * * * * * * * * * * * * * * * * * * * * //

dimensions      [0 1 -1 0 0 0 0];

internalField   nonuniform List<vector> 
200
(
(0.000595726 -0.0014186 0)
(0.00286382 -0.00178914 0)
(0.00521203 -0.00130141 0)
(0.00704175 -0.000682261 0)
(0.00813346 -0.00020941 0)
(0.00864398 6.11993e-05 0)
(0.00880815 0.000157948 0)
(0.00883162 0.000131567 0)
(0.0088629 2.84215e-05 0)
(0.00900071 -0.000119136 0)
(0.0093069 -0.000296236 0)
(0.00981668 -0.000499574 0)
(0.0105451 -0.000726262 0)
(0.011477 -0.000956127 0)
(0.0125259 -0.00112099 0)
(0.01344 -0.00105106 0)
(0.0136789 -0.000403784 0)
(0.0123899 0.00130942 0)
(0.00874601 0.00412415 0)
(0.00260475 0.00553825 0)
(0.0005949 -0.00551734 0)
(0.00375636 -0.00843034 0)
(0.00715801 -0.00742934 0)
(0.0100395 -0.00517664 0)
(0.0120501 -0.00300361 0)
(0.0132736 -0.0014325 0)
(0.0139485 -0.000551275 0)
(0.0143172 -0.000253485 0)
(0.0145707 -0.000375568 0)
(0.0148349 -0.000765371 0)
(0.0151769 -0.00130642 0)
(0.0156149 -0.00190735 0)
(0.0161174 -0.00246375 0)
(0.0165852 -0.00279235 0)
(0.0168172 -0.0025378 0)
(0.0164581 -0.00107184 0)
(0.0149468 0.00248778 0)
(0.0116941 0.00873281 0)
(0.006717 0.0161241 0)
(0.00112842 0.0159508 0)
(0.000543368 -0.00955804 0)
(0.00343809 -0.0151145 0)
(0.00648584 -0.0138182 0)
(0.00907646 -0.010142 0)
(0.0109226 -0.00641857 0)
(0.0121027 -0.00359485 0)
(0.0128146 -0.00186712 0)
(0.0132463 -0.0010869 0)
(0.0135348 -0.000992709 0)
(0.0137626 -0.00132566 0)
(0.013966 -0.00186717 0)
(0.0141407 -0.00242365 0)
(0.0142379 -0.00276857 0)
(0.0141493 -0.00255103 0)
(0.0136847 -0.00119549 0)
(0.0125457 0.00212445 0)
(0.0104737 0.00820517 0)
(0.00734112 0.01705 0)
(0.00358434 0.025422 0)
(0.000400338 0.0214332 0)
(0.00046261 -0.0130746 0)
(0.00277848 -0.0206554 0)
(0.00502191 -0.0188857 0)
(0.00679522 -0.0139278 0)
(0.00796849 -0.00894761 0)
(0.00867422 -0.00518266 0)
(0.00909111 -0.00284936 0)
(0.0093505 -0.00171768 0)
(0.00952447 -0.00142768 0)
(0.00964295 -0.00163711 0)
(0.00971088 -0.00206145 0)
(0.00971476 -0.00244272 0)
(0.00961635 -0.00246965 0)
(0.00933678 -0.00167414 0)
(0.00873173 0.000643012 0)
(0.00765077 0.00530842 0)
(0.00597235 0.0129578 0)
(0.0037484 0.0230003 0)
(0.00144357 0.0309825 0)
(3.70684e-05 0.0237953 0)
(0.00036951 -0.0158251 0)
(0.00195878 -0.0245207 0)
(0.00319522 -0.022002 0)
(0.00395502 -0.0159382 0)
(0.00430386 -0.0100988 0)
(0.00442902 -0.00582552 0)
(0.00447628 -0.00323665 0)
(0.00450964 -0.00197639 0)
(0.00453769 -0.00159784 0)
(0.00454871 -0.00171719 0)
(0.00453027 -0.0020324 0)
(0.00447029 -0.00226299 0)
(0.00434504 -0.00204785 0)
(0.00410329 -0.000840953 0)
(0.00364991 0.00212141 0)
(0.00291648 0.00762548 0)
(0.00188786 0.0160942 0)
(0.000729055 0.0264134 0)
(-0.000161239 0.0334426 0)
(-0.000182848 0.0241524 0)
(0.00026212 -0.017681 0)
(0.000961031 -0.0264411 0)
(0.0010171 -0.0229409 0)
(0.000665918 -0.0160608 0)
(0.000172415 -0.00984409 0)
(-0.000264792 -0.00551464 0)
(-0.000577103 -0.00301052 0)
(-0.000786551 -0.00183546 0)
(-0.000931862 -0.00149547 0)
(-0.00104541 -0.00161253 0)
(-0.00114603 -0.00190007 0)
(-0.00124719 -0.002072 0)
(-0.00136935 -0.00173196 0)
(-0.00154359 -0.000288249 0)
(-0.00180057 0.00302593 0)
(-0.0021041 0.00889169 0)
(-0.00233596 0.0174544 0)
(-0.00225727 0.027222 0)
(-0.00163451 0.0330074 0)
(-0.000363185 0.0228977 0)
(0.000119972 -0.018332 0)
(-0.00038681 -0.0259749 0)
(-0.00176192 -0.0213668 0)
(-0.00331072 -0.014164 0)
(-0.00464279 -0.0081968 0)
(-0.0056319 -0.0042983 0)
(-0.00631664 -0.00216616 0)
(-0.00678758 -0.00124492 0)
(-0.00712214 -0.00106115 0)
(-0.00737227 -0.00127233 0)
(-0.00757009 -0.00161434 0)
(-0.0077368 -0.00180283 0)
(-0.00788402 -0.00144128 0)
(-0.00799782 2.6405e-05 0)
(-0.00799722 0.00326008 0)
(-0.00771786 0.00878549 0)
(-0.00692615 0.0165584 0)
(-0.00539566 0.0250498 0)
(-0.00316266 0.0296001 0)
(-0.000568013 0.0200544 0)
(-0.000222292 -0.0171473 0)
(-0.00249161 -0.0223322 0)
(-0.00550549 -0.0169094 0)
(-0.00826645 -0.0101779 0)
(-0.0103337 -0.00515649 0)
(-0.0117271 -0.00216053 0)
(-0.0126254 -0.000705293 0)
(-0.0132055 -0.000235869 0)
(-0.013597 -0.000337635 0)
(-0.0138943 -0.000723431 0)
(-0.0141486 -0.00117259 0)
(-0.0143784 -0.00144618 0)
(-0.0145581 -0.0012202 0)
(-0.0145925 -6.39457e-05 0)
(-0.0142807 0.0025118 0)
(-0.0133544 0.00690061 0)
(-0.011489 0.013016 0)
(-0.00849996 0.0196107 0)
(-0.00468316 0.0230585 0)
(-0.000781692 0.0155695 0)
(-0.000878677 -0.0130011 0)
(-0.00551774 -0.0146807 0)
(-0.010081 -0.00946284 0)
(-0.0134812 -0.00444512 0)
(-0.0155129 -0.00127245 0)
(-0.0165609 0.00027118 0)
(-0.0170537 0.000764395 0)
(-0.0172818 0.000677238 0)
(-0.0174292 0.00030275 0)
(-0.0175953 -0.000190583 0)
(-0.0178275 -0.0006794 0)
(-0.0181229 -0.00103135 0)
(-0.0184109 -0.00106556 0)
(-0.0185339 -0.000535433 0)
(-0.0182144 0.000858729 0)
(-0.0170618 0.00340781 0)
(-0.0146585 0.00711609 0)
(-0.0107894 0.0112769 0)
(-0.00588002 0.013713 0)
(-0.000985418 0.00956946 0)
(-0.00209113 -0.00445726 0)
(-0.00734278 -0.00379059 0)
(-0.0109898 -0.00166057 0)
(-0.012814 -0.000198632 0)
(-0.013322 0.000466817 0)
(-0.0131718 0.000632938 0)
(-0.0127931 0.000565394 0)
(-0.0124293 0.000410002 0)
(-0.0121945 0.000230603 0)
(-0.0121336 4.72805e-05 0)
(-0.0122571 -0.000130573 0)
(-0.0125427 -0.000289536 0)
(-0.0129314 -0.000404654 0)
(-0.0132997 -0.000429526 0)
(-0.0134339 -0.000284925 0)
(-0.0130161 0.000153065 0)
(-0.0116319 0.000980768 0)
(-0.00895721 0.00214123 0)
(-0.00520794 0.00314406 0)
(-0.00122696 0.00263314 0)
)
;

boundaryField
{
    leftWall
    {
        type            fixedValue;
        value           uniform (0 0 0);
    }
    rightWall
    {
        type            fixedValue;
        value           uniform (0 0 0);
    }
    topWall
    {
        type            fixedValue;
        value           uniform (0 0 0);
    }
    bottomWall
    {
        type            fixedValue;
        value           uniform (0 0 0);
    }
    frontAndBackPlanes
    {
        type            empty;
    }
}


// ************************************************************************* //
