/*--------------------------------*- C++ -*----------------------------------*\
| =========                 |                                                 |
| \\      /  F ield         | OpenFOAM: The Open Source CFD Toolbox           |
|  \\    /   O peration     | Version:  2506                                  |
|   \\  /    A nd           | Website:  www.openfoam.com                      |
|    \\/     M anipulation  |                                                 |
\*---------------------------------------------------------------------------*/
FoamFile
{
    version     2.0;
    format      ascii;
    arch        "LSB;label=32;scalar=64";
    class       surfaceScalarField;
    location    "129";
    object      phi;
}
// * * * * * * * * * * * * * * * * * * * * * * * * * * * * * * * * * * * * * //

dimensions      [1 0 -1 0 0 0 0];

oriented        oriented;

internalField   nonuniform List<scalar> 
370
(
0.000350362
-0.000381377
0.000908412
-0.000557995
0.00138754
-0.000479049
0.00171205
-0.00032441
0.00189327
-0.000181113
0.00197505
-8.16569e-05
0.00200503
-2.98524e-05
0.00202209
-1.69201e-05
0.00205393
-3.16918e-05
0.00211901
-6.49304e-05
0.00222847
-0.000109304
0.00238825
-0.00015961
0.00259846
-0.000210033
0.00284753
-0.000248897
0.00309867
-0.00025096
0.00326435
-0.000165496
0.00317712
8.74229e-05
0.00262607
0.00055124
0.00141862
0.00120762
0.00141871
0.000465873
-0.000847221
0.00124222
-0.00133426
0.00197676
-0.00121348
0.00253721
-0.000884735
0.00291138
-0.000555152
0.00313871
-0.00030884
0.00327198
-0.000162969
0.00335906
-0.000103854
0.00343543
-0.000107906
0.00352276
-0.000152105
0.00363101
-0.000217391
0.00375879
-0.000287223
0.00389086
-0.000341928
0.00399143
-0.000349287
0.00399329
-0.000252641
0.00379101
3.69632e-05
0.00324928
0.000629348
0.00224209
0.00155862
0.000902393
0.00254747
0.00232118
0.000440025
-0.00128721
0.00115264
-0.00204678
0.00182452
-0.00188522
0.00234248
-0.00140253
0.00269883
-0.000911335
0.002928
-0.000537829
0.00307259
-0.000307389
0.00316856
-0.000199648
0.0032406
-0.000179769
0.00330231
-0.000213632
0.00335742
-0.000272324
0.00339985
-0.00032947
0.00341111
-0.000353009
0.00335541
-0.000293405
0.00317574
-7.27762e-05
0.00280072
0.000412172
0.00217982
0.00125044
0.00132719
0.00241143
0.000446121
0.00342871
0.00276737
0.000369923
-0.00165709
0.000929419
-0.00260616
0.00142064
-0.00237628
0.00177283
-0.00175453
0.0020001
-0.00113841
0.00214051
-0.000678049
0.00222849
-0.000395166
0.00228664
-0.000257608
0.0023267
-0.000219635
0.00235298
-0.000239723
0.00236488
-0.000284024
0.00235664
-0.000321045
0.00231457
-0.000310744
0.00221311
-0.000191747
0.00201476
0.000125772
0.00168451
0.000742627
0.00120904
0.00172611
0.00064369
0.00297696
0.000159917
0.00391263
0.00292736
0.000279315
-0.00193636
0.000637935
-0.00296465
0.000894998
-0.00263317
0.00103584
-0.00189518
0.00110018
-0.00120255
0.00112797
-0.000705636
0.00114271
-0.000409703
0.00115251
-0.000267206
0.00115743
-0.00022436
0.00115532
-0.000237414
0.001144
-0.000272514
0.00111987
-0.000296711
0.00107425
-0.000264927
0.000990575
-0.000107879
0.000846723
0.000269826
0.00062872
0.000960835
0.000351238
0.0020038
8.57676e-05
0.00324262
-4.77696e-05
0.00404632
0.00287965
0.000165746
-0.00210205
0.000274018
-0.00307279
0.000257375
-0.00261634
0.000168541
-0.00180614
6.67651e-05
-0.00110057
-1.74008e-05
-0.000621269
-7.8379e-05
-0.000348528
-0.00012203
-0.000223362
-0.000156245
-0.000189952
-0.000186245
-0.000207222
-0.000214986
-0.000243581
-0.000245916
-0.00026559
-0.000285237
-0.000225413
-0.000341053
-5.18644e-05
-0.000414615
0.000343591
-0.000492488
0.00103892
-0.000532126
0.00204364
-0.000463729
0.00317441
-0.000243112
0.00382585
0.00263659
-9.29089e-06
-0.00209271
-0.000218627
-0.00286331
-0.000550147
-0.00228464
-0.000882827
-0.00147326
-0.00115329
-0.00082991
-0.00135114
-0.000423225
-0.00149097
-0.000208514
-0.0015917
-0.000122445
-0.00166757
-0.00011389
-0.00172758
-0.00014703
-0.00177735
-0.00019363
-0.00182058
-0.000222175
-0.00185744
-0.000188362
-0.00187935
-2.97697e-05
-0.00185751
0.000321948
-0.0017477
0.0009293
-0.00148968
0.00178581
-0.00103735
0.00272226
-0.000440263
0.00322889
0.00219638
-0.000278073
-0.00181457
-0.00091511
-0.00222612
-0.00160224
-0.00159733
-0.00217016
-0.000905152
-0.00258019
-0.000419699
-0.00285707
-0.000146161
-0.00304062
-2.47802e-05
-0.00316552
2.62975e-06
-0.00325716
-2.20789e-05
-0.00333185
-7.21606e-05
-0.00339799
-0.000127328
-0.00345483
-0.000165159
-0.00348866
-0.000154368
-0.00346567
-5.25901e-05
-0.00333163
0.000188081
-0.00301438
0.000612212
-0.00244578
0.00121738
-0.001609
0.00188562
-0.000640309
0.0022603
0.00155611
-0.000702411
-0.00111209
-0.00183385
-0.00109453
-0.00279417
-0.00063683
-0.00343526
-0.000263873
-0.00380401
-5.07688e-05
-0.00399943
4.94331e-05
-0.0040994
7.53565e-05
-0.00415677
6.01559e-05
-0.00420489
2.62e-05
-0.0042624
-1.45021e-05
-0.00433488
-5.46988e-05
-0.00441354
-8.6353e-05
-0.00447121
-9.65623e-05
-0.00445614
-6.75283e-05
-0.00429328
2.53583e-05
-0.00388185
0.000200916
-0.00313741
0.000473061
-0.0020481
0.000796429
-0.000800986
0.00101327
0.000755164
-0.00111202
-0.0022064
-0.00284305
-0.00310674
-0.00315734
-0.00310774
-0.00303223
-0.00297192
-0.00294558
-0.00295995
-0.00301452
-0.00310076
-0.00319721
-0.00326463
-0.00323917
-0.00303816
-0.00256502
-0.00176851
-0.000755188
)
;

boundaryField
{
    leftWall
    {
        type            calculated;
        value           nonuniform List<scalar> 10(0 0 -5.42101e-20 0 2.1684e-19 0 0 0 0 0);
    }
    rightWall
    {
        type            calculated;
        value           nonuniform List<scalar> 10(0 0 0 4.33681e-19 0 0 -4.33681e-19 0 0 0);
    }
    topWall
    {
        type            calculated;
        value           uniform 0;
    }
    bottomWall
    {
        type            calculated;
        value           uniform 0;
    }
    frontAndBackPlanes
    {
        type            empty;
    }
}


// ************************************************************************* //
