/*--------------------------------*- C++ -*----------------------------------*\
| =========                 |                                                 |
| \\      /  F ield         | OpenFOAM: The Open Source CFD Toolbox           |
|  \\    /   O peration     | Version:  2506                                  |
|   \\  /    A nd           | Website:  www.openfoam.com                      |
|    \\/     M anipulation  |                                                 |
\*---------------------------------------------------------------------------*/
FoamFile
{
    version     2.0;
    format      ascii;
    arch        "LSB;label=32;scalar=64";
    class       volScalarField;
    location    "129";
    object      T;
}
// * * * * * * * * * * * * * * * * * * * * * * * * * * * * * * * * * * * * * //

dimensions      [0 0 0 1 0 0 0];

internalField   nonuniform List<scalar> 
200
(
273.167
273.197
273.22
273.235
273.245
273.252
273.258
273.262
273.267
273.271
273.275
273.279
273.284
273.288
273.294
273.305
273.329
273.39
273.541
273.867
273.178
273.227
273.261
273.281
273.292
273.298
273.301
273.303
273.305
273.308
273.311
273.314
273.318
273.321
273.324
273.33
273.35
273.41
273.565
273.892
273.192
273.267
273.318
273.348
273.362
273.368
273.369
273.369
273.368
273.368
273.369
273.37
273.37
273.37
273.369
273.372
273.39
273.45
273.609
273.924
273.207
273.308
273.377
273.417
273.435
273.44
273.439
273.437
273.434
273.431
273.43
273.428
273.425
273.42
273.415
273.415
273.432
273.496
273.658
273.953
273.221
273.348
273.435
273.482
273.501
273.506
273.503
273.498
273.493
273.489
273.486
273.482
273.476
273.468
273.46
273.458
273.478
273.548
273.71
273.98
273.236
273.39
273.491
273.543
273.561
273.563
273.559
273.553
273.549
273.546
273.543
273.538
273.53
273.52
273.513
273.515
273.541
273.614
273.764
274.001
273.253
273.434
273.546
273.598
273.615
273.617
273.614
273.612
273.612
273.611
273.61
273.607
273.601
273.595
273.591
273.597
273.625
273.692
273.822
274.023
273.275
273.479
273.596
273.649
273.668
273.676
273.68
273.684
273.688
273.693
273.696
273.697
273.697
273.696
273.696
273.704
273.729
273.784
273.887
274.047
273.299
273.52
273.641
273.698
273.724
273.739
273.75
273.76
273.769
273.778
273.787
273.795
273.802
273.808
273.814
273.825
273.846
273.887
273.96
274.074
273.315
273.541
273.662
273.721
273.752
273.771
273.786
273.8
273.813
273.827
273.841
273.855
273.87
273.885
273.901
273.918
273.941
273.974
274.025
274.099
)
;

boundaryField
{
    leftWall
    {
        type            fixedValue;
        value           uniform 273.15;
    }
    rightWall
    {
        type            customNeumannDirichletCoupledBoundary;
        refValue        nonuniform List<scalar> 10(274.131 274.132 274.133 274.135 274.137 274.139 274.141 274.142 274.144 274.145);
        refGradient     uniform 0;
        valueFraction   uniform 1;
        source          uniform 0;
        value           nonuniform List<scalar> 10(274.131 274.132 274.133 274.135 274.137 274.139 274.141 274.142 274.144 274.145);
        kappaMethod     fluidThermo;
    }
    topWall
    {
        type            zeroGradient;
    }
    bottomWall
    {
        type            zeroGradient;
    }
    frontAndBackPlanes
    {
        type            empty;
    }
}


// ************************************************************************* //
