/*--------------------------------*- C++ -*----------------------------------*\
| =========                 |                                                 |
| \\      /  F ield         | OpenFOAM: The Open Source CFD Toolbox           |
|  \\    /   O peration     | Version:  2506                                  |
|   \\  /    A nd           | Website:  www.openfoam.com                      |
|    \\/     M anipulation  |                                                 |
\*---------------------------------------------------------------------------*/
FoamFile
{
    version     2.0;
    format      ascii;
    arch        "LSB;label=32;scalar=64";
    class       volVectorField;
    location    "108";
    object      U;
}
// * * * * * * * * * * * * * * * * * * * * * * * * * * * * * * * * * * * * * //

dimensions      [0 1 -1 0 0 0 0];

internalField   nonuniform List<vector> 
200
(
(0.000401686 -0.00108181 0)
(0.00215838 -0.00139483 0)
(0.00407706 -0.00104178 0)
(0.00563633 -0.000581216 0)
(0.00662565 -0.000223851 0)
(0.00716356 -1.84209e-05 0)
(0.00743196 5.06407e-05 0)
(0.00759611 1.9373e-05 0)
(0.00778167 -7.79944e-05 0)
(0.0080759 -0.000218594 0)
(0.00853662 -0.000392444 0)
(0.00920138 -0.000598146 0)
(0.0100903 -0.000833093 0)
(0.0111934 -0.00107608 0)
(0.0124281 -0.00125682 0)
(0.0135405 -0.00120186 0)
(0.0139604 -0.000551348 0)
(0.0127924 0.00123023 0)
(0.00913507 0.00422096 0)
(0.00274774 0.00583196 0)
(0.000483648 -0.00436208 0)
(0.00313188 -0.0068489 0)
(0.00606502 -0.00622233 0)
(0.00862214 -0.00453482 0)
(0.0104863 -0.002853 0)
(0.0117103 -0.0016236 0)
(0.0124842 -0.000942454 0)
(0.0130074 -0.000740369 0)
(0.0134399 -0.000895222 0)
(0.0138908 -0.00128987 0)
(0.0144215 -0.00183162 0)
(0.0150501 -0.00244221 0)
(0.015747 -0.00302114 0)
(0.0164138 -0.00338046 0)
(0.0168448 -0.0031504 0)
(0.0166749 -0.00167397 0)
(0.0153123 0.00200236 0)
(0.0121077 0.00856999 0)
(0.00702938 0.0165198 0)
(0.00119587 0.0167429 0)
(0.000478717 -0.00784063 0)
(0.00308084 -0.0127259 0)
(0.00588815 -0.0119792 0)
(0.00833759 -0.00915281 0)
(0.0101504 -0.0061779 0)
(0.0113776 -0.00388265 0)
(0.0121841 -0.00247168 0)
(0.0127329 -0.00185075 0)
(0.0131456 -0.00181916 0)
(0.013498 -0.00216825 0)
(0.0138246 -0.00271466 0)
(0.014122 -0.0032846 0)
(0.0143431 -0.00365674 0)
(0.0143799 -0.00347001 0)
(0.0140366 -0.0021179 0)
(0.0129946 0.00129655 0)
(0.0109519 0.00766525 0)
(0.00775797 0.0170613 0)
(0.0038414 0.0262002 0)
(0.000443403 0.0225532 0)
(0.000434161 -0.0110868 0)
(0.00266986 -0.0179632 0)
(0.00491112 -0.0169013 0)
(0.00674642 -0.0129617 0)
(0.00801943 -0.00884304 0)
(0.00883258 -0.00565989 0)
(0.00934494 -0.0036561 0)
(0.00968118 -0.00267627 0)
(0.00991529 -0.00243534 0)
(0.0100823 -0.00264917 0)
(0.0101922 -0.00307159 0)
(0.0102355 -0.00346485 0)
(0.0101763 -0.00352042 0)
(0.00993474 -0.00275155 0)
(0.00936756 -0.000408498 0)
(0.00827783 0.00444965 0)
(0.00654057 0.0125354 0)
(0.00418176 0.023309 0)
(0.00167707 0.0321744 0)
(7.06082e-05 0.0251834 0)
(0.000371385 -0.0138128 0)
(0.00205054 -0.0219568 0)
(0.0034677 -0.0202839 0)
(0.00443295 -0.0152903 0)
(0.00496051 -0.010286 0)
(0.00521243 -0.00652408 0)
(0.00533174 -0.00418796 0)
(0.00539416 -0.00301745 0)
(0.00542329 -0.00264598 0)
(0.0054196 -0.00274492 0)
(0.00537872 -0.00304566 0)
(0.00529356 -0.00328393 0)
(0.00514309 -0.00309611 0)
(0.00487464 -0.0019053 0)
(0.00438301 0.00112614 0)
(0.00358281 0.00689837 0)
(0.00244297 0.0159214 0)
(0.00111491 0.027101 0)
(1.05588e-05 0.0350553 0)
(-0.00017265 0.0257656 0)
(0.000283815 -0.0158269 0)
(0.00118752 -0.0243066 0)
(0.00153231 -0.0217365 0)
(0.00144385 -0.0158639 0)
(0.00113252 -0.0103508 0)
(0.000788106 -0.0063948 0)
(0.00049904 -0.00402407 0)
(0.00027357 -0.00285901 0)
(8.84512e-05 -0.0024805 0)
(-7.80879e-05 -0.0025549 0)
(-0.000237633 -0.00281994 0)
(-0.000399976 -0.00299946 0)
(-0.000584965 -0.00268712 0)
(-0.00082691 -0.00124717 0)
(-0.00116926 0.0021783 0)
(-0.00158513 0.00838565 0)
(-0.00195705 0.0176005 0)
(-0.00203735 0.0282986 0)
(-0.00156248 0.0349604 0)
(-0.00036517 0.0246452 0)
(0.000153492 -0.0167542 0)
(-9.33237e-05 -0.0244307 0)
(-0.00116236 -0.0207631 0)
(-0.00247869 -0.0143926 0)
(-0.00368764 -0.00891951 0)
(-0.00464502 -0.00523301 0)
(-0.00535582 -0.00313907 0)
(-0.00588379 -0.00217455 0)
(-0.00629237 -0.00192231 0)
(-0.00662494 -0.00207576 0)
(-0.00690843 -0.0023881 0)
(-0.00716305 -0.00257648 0)
(-0.00740379 -0.00222425 0)
(-0.00762193 -0.000724244 0)
(-0.00774539 0.00266668 0)
(-0.00759746 0.00856702 0)
(-0.00692347 0.016994 0)
(-0.00547082 0.0263647 0)
(-0.00325415 0.031673 0)
(-0.000595433 0.0217722 0)
(-0.000173298 -0.0158981 0)
(-0.00217052 -0.0213643 0)
(-0.00494063 -0.0167875 0)
(-0.00756276 -0.0106746 0)
(-0.00960346 -0.00595249 0)
(-0.0110479 -0.00303659 0)
(-0.0120399 -0.00154104 0)
(-0.0127345 -0.000986862 0)
(-0.0132506 -0.00100033 0)
(-0.0136704 -0.00132067 0)
(-0.0140447 -0.00173673 0)
(-0.0143942 -0.00200177 0)
(-0.0146975 -0.00176636 0)
(-0.0148632 -0.000553798 0)
(-0.0146814 0.00218664 0)
(-0.0138489 0.00690975 0)
(-0.0120135 0.0135756 0)
(-0.00896 0.0208861 0)
(-0.00498082 0.0249183 0)
(-0.000842414 0.0170506 0)
(-0.000803178 -0.0121381 0)
(-0.00514736 -0.0142236 0)
(-0.00955782 -0.00964551 0)
(-0.0129693 -0.0049955 0)
(-0.0151322 -0.00193454 0)
(-0.0163583 -0.000356515 0)
(-0.0170328 0.000224528 0)
(-0.0174388 0.000230134 0)
(-0.0177442 -7.01675e-05 0)
(-0.0180533 -0.00051425 0)
(-0.0184215 -0.000978953 0)
(-0.0188484 -0.0013244 0)
(-0.0192664 -0.00135176 0)
(-0.0195139 -0.000785708 0)
(-0.0192966 0.000710581 0)
(-0.0181824 0.00346656 0)
(-0.0157127 0.00752363 0)
(-0.0116358 0.0121475 0)
(-0.00638697 0.0149691 0)
(-0.00108179 0.010578 0)
(-0.00194045 -0.00414513 0)
(-0.00691913 -0.00369007 0)
(-0.0105504 -0.00176606 0)
(-0.0125234 -0.000383726 0)
(-0.013237 0.000285745 0)
(-0.0132974 0.000493547 0)
(-0.0131103 0.000463322 0)
(-0.0128971 0.000336677 0)
(-0.0127819 0.000175938 0)
(-0.0128203 1.98456e-06 0)
(-0.0130287 -0.000173131 0)
(-0.0133975 -0.000335471 0)
(-0.0138715 -0.000457526 0)
(-0.0143246 -0.000487343 0)
(-0.0145274 -0.000336455 0)
(-0.0141375 0.000134144 0)
(-0.0126975 0.00104243 0)
(-0.00983482 0.00233702 0)
(-0.00576007 0.00347964 0)
(-0.00137159 0.00294628 0)
)
;

boundaryField
{
    leftWall
    {
        type            fixedValue;
        value           uniform (0 0 0);
    }
    rightWall
    {
        type            fixedValue;
        value           uniform (0 0 0);
    }
    topWall
    {
        type            fixedValue;
        value           uniform (0 0 0);
    }
    bottomWall
    {
        type            fixedValue;
        value           uniform (0 0 0);
    }
    frontAndBackPlanes
    {
        type            empty;
    }
}


// ************************************************************************* //
