/*--------------------------------*- C++ -*----------------------------------*\
| =========                 |                                                 |
| \\      /  F ield         | OpenFOAM: The Open Source CFD Toolbox           |
|  \\    /   O peration     | Version:  2506                                  |
|   \\  /    A nd           | Website:  www.openfoam.com                      |
|    \\/     M anipulation  |                                                 |
\*---------------------------------------------------------------------------*/
FoamFile
{
    version     2.0;
    format      ascii;
    arch        "LSB;label=32;scalar=64";
    class       volScalarField;
    location    "0.4";
    object      p;
}
// * * * * * * * * * * * * * * * * * * * * * * * * * * * * * * * * * * * * * //

dimensions      [1 -1 -2 0 0 0 0];

internalField   nonuniform List<scalar> 
200
(
100000
99999.9
99999.9
99999.8
99999.7
99999.7
99999.7
99999.6
99999.6
99999.6
99999.6
99999.6
99999.6
99999.6
99999.6
99999.6
99999.6
99999.6
99999.6
99999.7
99733.1
99733.1
99733.1
99733
99733
99732.9
99732.9
99732.9
99732.8
99732.8
99732.8
99732.8
99732.8
99732.8
99732.8
99732.8
99732.8
99732.8
99732.9
99732.9
99466.3
99466.3
99466.3
99466.3
99466.3
99466.2
99466.2
99466.2
99466.2
99466.2
99466.2
99466.2
99466.2
99466.2
99466.2
99466.2
99466.2
99466.2
99466.2
99466.2
99199.5
99199.5
99199.5
99199.5
99199.5
99199.5
99199.4
99199.4
99199.4
99199.4
99199.4
99199.4
99199.4
99199.4
99199.4
99199.4
99199.4
99199.4
99199.4
99199.4
98932.7
98932.7
98932.7
98932.7
98932.7
98932.7
98932.7
98932.7
98932.6
98932.6
98932.6
98932.6
98932.6
98932.6
98932.6
98932.6
98932.6
98932.6
98932.6
98932.6
98665.9
98665.9
98665.9
98665.9
98665.9
98665.9
98665.9
98665.9
98665.9
98665.9
98665.9
98665.8
98665.8
98665.8
98665.8
98665.8
98665.8
98665.8
98665.8
98665.8
98399
98399
98399
98399
98399
98399
98399
98399
98399
98399
98399
98399
98399
98399
98399
98399
98399
98399
98399
98399
98132.2
98132.2
98132.2
98132.2
98132.2
98132.2
98132.2
98132.2
98132.2
98132.2
98132.2
98132.2
98132.2
98132.2
98132.2
98132.2
98132.2
98132.2
98132.2
98132.2
97865.4
97865.4
97865.4
97865.4
97865.4
97865.5
97865.5
97865.5
97865.5
97865.5
97865.5
97865.5
97865.5
97865.5
97865.5
97865.4
97865.4
97865.4
97865.4
97865.4
97598.4
97598.5
97598.5
97598.5
97598.5
97598.5
97598.6
97598.6
97598.6
97598.6
97598.6
97598.6
97598.6
97598.6
97598.6
97598.5
97598.5
97598.5
97598.5
97598.5
)
;

boundaryField
{
    leftWall
    {
        type            zeroGradient;
    }
    rightWall
    {
        type            zeroGradient;
    }
    topWall
    {
        type            zeroGradient;
    }
    bottomWall
    {
        type            zeroGradient;
    }
    frontAndBackPlanes
    {
        type            empty;
    }
}


// ************************************************************************* //
