/*--------------------------------*- C++ -*----------------------------------*\
| =========                 |                                                 |
| \\      /  F ield         | OpenFOAM: The Open Source CFD Toolbox           |
|  \\    /   O peration     | Version:  2506                                  |
|   \\  /    A nd           | Website:  www.openfoam.com                      |
|    \\/     M anipulation  |                                                 |
\*---------------------------------------------------------------------------*/
FoamFile
{
    version     2.0;
    format      ascii;
    arch        "LSB;label=32;scalar=64";
    class       volVectorField;
    location    "132.4";
    object      U;
}
// * * * * * * * * * * * * * * * * * * * * * * * * * * * * * * * * * * * * * //

dimensions      [0 1 -1 0 0 0 0];

internalField   nonuniform List<vector> 
200
(
(0.000548969 -0.00133718 0)
(0.00269355 -0.00169361 0)
(0.00493746 -0.001238 0)
(0.00670073 -0.000656746 0)
(0.00776595 -0.000211521 0)
(0.00828091 4.34035e-05 0)
(0.00846783 0.000133269 0)
(0.00852268 0.00010542 0)
(0.00858904 3.55151e-06 0)
(0.00876321 -0.000142513 0)
(0.00910583 -0.000319117 0)
(0.00965261 -0.000523354 0)
(0.0104198 -0.000752403 0)
(0.0113938 -0.000985923 0)
(0.012489 -0.00115537 0)
(0.0134539 -0.00109017 0)
(0.0137404 -0.000442902 0)
(0.0124848 0.0012871 0)
(0.00884058 0.00414639 0)
(0.00264 0.00561077 0)
(0.000567993 -0.00523819 0)
(0.00360562 -0.00804769 0)
(0.006894 -0.00713528 0)
(0.00969638 -0.00501681 0)
(0.0116701 -0.00296065 0)
(0.0128918 -0.00147122 0)
(0.0135886 -0.00063843 0)
(0.0139929 -0.000364578 0)
(0.0142882 -0.000495721 0)
(0.014596 -0.000888074 0)
(0.0149823 -0.00143078 0)
(0.0154656 -0.0020356 0)
(0.0160146 -0.00259919 0)
(0.0165306 -0.00293743 0)
(0.0168114 -0.00269182 0)
(0.0164998 -0.0012272 0)
(0.0150266 0.00235832 0)
(0.0117885 0.00868197 0)
(0.00678994 0.0162136 0)
(0.00114429 0.0161433 0)
(0.00052777 -0.00914331 0)
(0.00335226 -0.0145373 0)
(0.00634224 -0.0133714 0)
(0.00889871 -0.00989747 0)
(0.0107364 -0.00635214 0)
(0.0119272 -0.00365455 0)
(0.0126612 -0.00200309 0)
(0.0131205 -0.00126213 0)
(0.0134384 -0.00118455 0)
(0.0136957 -0.00152314 0)
(0.0139282 -0.00206763 0)
(0.0141319 -0.00262928 0)
(0.0142586 -0.00298302 0)
(0.0141998 -0.00277583 0)
(0.0137642 -0.00142486 0)
(0.0126481 0.00191389 0)
(0.0105836 0.00806 0)
(0.00743722 0.0170372 0)
(0.00364359 0.0255994 0)
(0.000410158 0.0217015 0)
(0.000455922 -0.0125954 0)
(0.00275332 -0.020006 0)
(0.00499676 -0.0184048 0)
(0.00678527 -0.0136893 0)
(0.00798267 -0.00891406 0)
(0.00871422 -0.00528773 0)
(0.00915397 -0.00303376 0)
(0.00943183 -0.00193967 0)
(0.00962037 -0.00166299 0)
(0.0097506 -0.00187506 0)
(0.00982859 -0.0023005 0)
(0.00984173 -0.00268632 0)
(0.0097523 -0.00272224 0)
(0.00948127 -0.0019361 0)
(0.00888469 0.000383321 0)
(0.00780078 0.00509065 0)
(0.00610766 0.0128406 0)
(0.003851 0.0230576 0)
(0.00149835 0.0312569 0)
(4.48463e-05 0.0241255 0)
(0.000370295 -0.0153418 0)
(0.00198243 -0.0239037 0)
(0.00326274 -0.0215861 0)
(0.00407212 -0.0157768 0)
(0.00446422 -0.0101357 0)
(0.00461992 -0.00598351 0)
(0.00468434 -0.003456 0)
(0.00472492 -0.0022189 0)
(0.00475376 -0.00184367 0)
(0.00476176 -0.00195945 0)
(0.00473825 -0.0022723 0)
(0.00467229 -0.0025059 0)
(0.0045408 -0.00229892 0)
(0.00429222 -0.00109831 0)
(0.00382887 0.00187726 0)
(0.00307841 0.00744131 0)
(0.00202196 0.0160387 0)
(0.000821713 0.026563 0)
(-0.000120099 0.0338179 0)
(-0.000180227 0.0245351 0)
(0.000268411 -0.017239 0)
(0.00101782 -0.0259281 0)
(0.00114256 -0.0226482 0)
(0.00085421 -0.0160074 0)
(0.000405333 -0.00995838 0)
(-1.00507e-05 -0.00571766 0)
(-0.000317642 -0.00324449 0)
(-0.000529519 -0.00207427 0)
(-0.000683236 -0.00172718 0)
(-0.000808777 -0.00183524 0)
(-0.000923152 -0.00211813 0)
(-0.00103888 -0.00229259 0)
(-0.00117619 -0.00196026 0)
(-0.0013666 -0.000519193 0)
(-0.00164431 0.00281911 0)
(-0.00197572 0.00876292 0)
(-0.00224253 0.0174781 0)
(-0.00220341 0.0274673 0)
(-0.00161703 0.0334651 0)
(-0.000363627 0.0233118 0)
(0.000132983 -0.0179567 0)
(-0.00031028 -0.0256058 0)
(-0.00161705 -0.0212184 0)
(-0.00311079 -0.0142113 0)
(-0.00441315 -0.00836115 0)
(-0.00539439 -0.00451472 0)
(-0.00608442 -0.00239408 0)
(-0.00656736 -0.00146487 0)
(-0.00691852 -0.00126531 0)
(-0.00718788 -0.0014628 0)
(-0.00740599 -0.00179775 0)
(-0.00759373 -0.00198632 0)
(-0.00776343 -0.0016273 0)
(-0.00790175 -0.000152753 0)
(-0.00793058 0.00311607 0)
(-0.00768361 0.00872797 0)
(-0.00692159 0.0166546 0)
(-0.00541149 0.0253552 0)
(-0.00318385 0.0300884 0)
(-0.000574518 0.0204617 0)
(-0.00020979 -0.0168504 0)
(-0.00241347 -0.0221021 0)
(-0.00536936 -0.0168767 0)
(-0.00809665 -0.0102898 0)
(-0.0101568 -0.00533931 0)
(-0.0115616 -0.00236401 0)
(-0.0124811 -0.000901668 0)
(-0.0130875 -0.00041426 0)
(-0.0135092 -0.000495141 0)
(-0.0138354 -0.000865276 0)
(-0.0141178 -0.00130649 0)
(-0.0143755 -0.00157805 0)
(-0.0145842 -0.00134997 0)
(-0.0146507 -0.000180854 0)
(-0.014371 0.00243261 0)
(-0.0134676 0.00689939 0)
(-0.0116105 0.0131448 0)
(-0.00860764 0.0199099 0)
(-0.00475343 0.0234982 0)
(-0.000796105 0.015921 0)
(-0.000860648 -0.0127979 0)
(-0.0054294 -0.014573 0)
(-0.00995578 -0.00950432 0)
(-0.0133574 -0.00457254 0)
(-0.0154191 -0.00142673 0)
(-0.016509 0.000124103 0)
(-0.0170454 0.000637269 0)
(-0.0173164 0.000571094 0)
(-0.0175007 0.000212894 0)
(-0.0177004 -0.000269076 0)
(-0.0179645 -0.000751952 0)
(-0.0182909 -0.0011021 0)
(-0.0186095 -0.00113464 0)
(-0.0187624 -0.000596222 0)
(-0.0184676 0.000822086 0)
(-0.0173249 0.00342006 0)
(-0.0149069 0.00721107 0)
(-0.0109895 0.0114822 0)
(-0.0060002 0.0140107 0)
(-0.00100829 0.00980895 0)
(-0.00205564 -0.00438411 0)
(-0.00724323 -0.00376735 0)
(-0.0108866 -0.00168553 0)
(-0.0127453 -0.000242525 0)
(-0.0133006 0.000423183 0)
(-0.0131985 0.000598664 0)
(-0.0128642 0.000540156 0)
(-0.012536 0.000391709 0)
(-0.0123297 0.000216231 0)
(-0.0122928 3.52066e-05 0)
(-0.0124371 -0.000141608 0)
(-0.0127431 -0.000301 0)
(-0.0131525 -0.000417488 0)
(-0.0135413 -0.000443348 0)
(-0.0136922 -0.000297139 0)
(-0.0132814 0.000148584 0)
(-0.0118844 0.000995333 0)
(-0.00916545 0.00218758 0)
(-0.00533909 0.00322365 0)
(-0.00126133 0.00270748 0)
)
;

boundaryField
{
    leftWall
    {
        type            fixedValue;
        value           uniform (0 0 0);
    }
    rightWall
    {
        type            fixedValue;
        value           uniform (0 0 0);
    }
    topWall
    {
        type            fixedValue;
        value           uniform (0 0 0);
    }
    bottomWall
    {
        type            fixedValue;
        value           uniform (0 0 0);
    }
    frontAndBackPlanes
    {
        type            empty;
    }
}


// ************************************************************************* //
