/*--------------------------------*- C++ -*----------------------------------*\
| =========                 |                                                 |
| \\      /  F ield         | OpenFOAM: The Open Source CFD Toolbox           |
|  \\    /   O peration     | Version:  2506                                  |
|   \\  /    A nd           | Website:  www.openfoam.com                      |
|    \\/     M anipulation  |                                                 |
\*---------------------------------------------------------------------------*/
FoamFile
{
    version     2.0;
    format      ascii;
    arch        "LSB;label=32;scalar=64";
    class       volScalarField;
    location    "65";
    object      p_rgh;
}
// * * * * * * * * * * * * * * * * * * * * * * * * * * * * * * * * * * * * * //

dimensions      [1 -1 -2 0 0 0 0];

internalField   nonuniform List<scalar> 
200
(
100000
100000
100000
100000
100000
100000
100000
99999.9
99999.9
99999.9
99999.9
99999.8
99999.8
99999.7
99999.6
99999.5
99999.4
99999.1
99998.7
99998.1
100000
100000
100000
100000
99999.9
99999.9
99999.9
99999.9
99999.8
99999.8
99999.8
99999.8
99999.7
99999.7
99999.7
99999.6
99999.5
99999.2
99998.5
99996.9
100000
100000
99999.9
99999.8
99999.7
99999.7
99999.7
99999.6
99999.6
99999.6
99999.6
99999.6
99999.6
99999.6
99999.6
99999.5
99999.4
99998.9
99997.8
99995.3
100000
99999.9
99999.6
99999.4
99999.3
99999.3
99999.3
99999.3
99999.3
99999.3
99999.3
99999.3
99999.3
99999.4
99999.4
99999.4
99999.2
99998.5
99996.8
99993.4
100001
99999.8
99999.3
99998.9
99998.7
99998.7
99998.7
99998.7
99998.7
99998.7
99998.8
99998.8
99998.9
99999
99999.1
99999.1
99998.9
99997.9
99995.6
99991.5
100001
99999.6
99998.8
99998.2
99998
99997.9
99997.9
99997.9
99998
99998
99998
99998.1
99998.2
99998.4
99998.6
99998.6
99998.1
99996.8
99994.1
99989.6
100001
99999.4
99998.1
99997.4
99997.1
99996.9
99996.9
99996.9
99996.9
99996.9
99996.9
99997
99997.1
99997.2
99997.4
99997.3
99996.7
99995.2
99992.4
99987.8
100002
99999
99997.3
99996.4
99995.9
99995.7
99995.6
99995.4
99995.3
99995.2
99995.1
99995.1
99995.1
99995.1
99995.1
99995
99994.4
99993.1
99990.4
99986.1
100002
99998.6
99996.5
99995.3
99994.6
99994.2
99993.8
99993.5
99993.2
99993
99992.7
99992.5
99992.3
99992.2
99992
99991.8
99991.3
99990.2
99988.1
99984.5
100002
99998.3
99995.9
99994.6
99993.8
99993.2
99992.7
99992.3
99991.8
99991.4
99991
99990.5
99990.1
99989.7
99989.3
99988.9
99988.3
99987.4
99985.8
99983.2
)
;

boundaryField
{
    leftWall
    {
        type            fixedFluxPressure;
        gradient        nonuniform List<scalar> 10(0.159794 1.12146 3.72832 8.56347 15.9138 26.0257 39.4342 58.0245 81.6072 103.126);
        value           nonuniform List<scalar> 10(100000 100000 100000 100001 100001 100001 100002 100003 100004 100005);
    }
    rightWall
    {
        type            fixedFluxPressure;
        gradient        nonuniform List<scalar> 10(-16.9036 -46.6514 -69.4217 -86.3704 -97.8572 -105.962 -109.221 -104.689 -89.3073 -66.5041);
        value           nonuniform List<scalar> 10(99997.7 99995.8 99993.6 99991.3 99989 99986.9 99985 99983.4 99982.2 99981.5);
    }
    topWall
    {
        type            fixedFluxPressure;
        gradient        uniform 0;
        value           nonuniform List<scalar> 
20
(
100000
100000
100000
100000
100000
100000
100000
99999.9
99999.9
99999.9
99999.9
99999.8
99999.8
99999.7
99999.6
99999.5
99999.4
99999.1
99998.7
99998.1
)
;
    }
    bottomWall
    {
        type            fixedFluxPressure;
        gradient        uniform 0;
        value           nonuniform List<scalar> 
20
(
100002
99998.3
99995.9
99994.6
99993.8
99993.2
99992.7
99992.3
99991.8
99991.4
99991
99990.5
99990.1
99989.7
99989.3
99988.9
99988.3
99987.4
99985.8
99983.2
)
;
    }
    frontAndBackPlanes
    {
        type            empty;
    }
}


// ************************************************************************* //
