/*--------------------------------*- C++ -*----------------------------------*\
| =========                 |                                                 |
| \\      /  F ield         | OpenFOAM: The Open Source CFD Toolbox           |
|  \\    /   O peration     | Version:  2506                                  |
|   \\  /    A nd           | Website:  www.openfoam.com                      |
|    \\/     M anipulation  |                                                 |
\*---------------------------------------------------------------------------*/
FoamFile
{
    version     2.0;
    format      ascii;
    arch        "LSB;label=32;scalar=64";
    class       volScalarField;
    location    "40.8";
    object      T;
}
// * * * * * * * * * * * * * * * * * * * * * * * * * * * * * * * * * * * * * //

dimensions      [0 0 0 1 0 0 0];

internalField   nonuniform List<scalar> 
200
(
273.15
273.149
273.149
273.149
273.149
273.148
273.148
273.148
273.148
273.147
273.147
273.147
273.148
273.149
273.151
273.159
273.182
273.244
273.409
273.794
273.15
273.151
273.152
273.153
273.154
273.154
273.154
273.154
273.154
273.153
273.153
273.153
273.152
273.152
273.153
273.158
273.177
273.24
273.415
273.815
273.152
273.155
273.159
273.163
273.165
273.167
273.168
273.168
273.167
273.166
273.165
273.164
273.162
273.159
273.158
273.162
273.183
273.253
273.442
273.843
273.154
273.163
273.172
273.18
273.186
273.19
273.191
273.191
273.19
273.188
273.186
273.182
273.177
273.172
273.168
273.171
273.195
273.274
273.475
273.87
273.158
273.175
273.192
273.207
273.217
273.223
273.225
273.225
273.223
273.22
273.215
273.208
273.199
273.189
273.182
273.186
273.216
273.306
273.516
273.897
273.163
273.191
273.219
273.243
273.259
273.268
273.271
273.27
273.267
273.262
273.255
273.246
273.233
273.219
273.21
273.217
273.257
273.36
273.573
273.925
273.17
273.212
273.254
273.288
273.311
273.323
273.327
273.328
273.326
273.323
273.318
273.31
273.299
273.288
273.285
273.298
273.343
273.445
273.639
273.95
273.178
273.238
273.295
273.341
273.371
273.389
273.4
273.407
273.413
273.418
273.42
273.421
273.419
273.417
273.418
273.433
273.474
273.562
273.722
273.98
273.188
273.265
273.336
273.394
273.437
273.468
273.491
273.51
273.527
273.542
273.555
273.567
273.577
273.586
273.595
273.61
273.643
273.708
273.826
274.018
273.193
273.276
273.353
273.418
273.471
273.512
273.546
273.576
273.602
273.627
273.651
273.674
273.697
273.72
273.744
273.768
273.801
273.852
273.932
274.059
)
;

boundaryField
{
    leftWall
    {
        type            fixedValue;
        value           uniform 273.15;
    }
    rightWall
    {
        type            customNeumannDirichletCoupledBoundary;
        refValue        nonuniform List<scalar> 10(274.125 274.126 274.128 274.13 274.131 274.133 274.135 274.137 274.139 274.141);
        refGradient     uniform 0;
        valueFraction   uniform 1;
        source          uniform 0;
        value           nonuniform List<scalar> 10(274.125 274.126 274.128 274.13 274.131 274.133 274.135 274.137 274.139 274.141);
        kappaMethod     fluidThermo;
    }
    topWall
    {
        type            zeroGradient;
    }
    bottomWall
    {
        type            zeroGradient;
    }
    frontAndBackPlanes
    {
        type            empty;
    }
}


// ************************************************************************* //
