/*--------------------------------*- C++ -*----------------------------------*\
| =========                 |                                                 |
| \\      /  F ield         | OpenFOAM: The Open Source CFD Toolbox           |
|  \\    /   O peration     | Version:  2506                                  |
|   \\  /    A nd           | Website:  www.openfoam.com                      |
|    \\/     M anipulation  |                                                 |
\*---------------------------------------------------------------------------*/
FoamFile
{
    version     2.0;
    format      ascii;
    arch        "LSB;label=32;scalar=64";
    class       surfaceScalarField;
    location    "28";
    object      phi;
}
// * * * * * * * * * * * * * * * * * * * * * * * * * * * * * * * * * * * * * //

dimensions      [1 0 -1 0 0 0 0];

oriented        oriented;

internalField   nonuniform List<scalar> 
370
(
-6.46637e-05
-4.11057e-05
5.5654e-05
-0.000120317
0.000256552
-0.000200897
0.000527385
-0.000270833
0.000844811
-0.000317426
0.00118405
-0.000339239
0.00152447
-0.000340421
0.00185224
-0.000327776
0.00216114
-0.000308907
0.00245181
-0.000290676
0.00272983
-0.000278018
0.00300273
-0.000272909
0.00327488
-0.000272159
0.00354017
-0.000265295
0.0037684
-0.000228236
0.00387672
-0.000108317
0.00371557
0.000161151
0.00305501
0.000660594
0.00166901
0.00138603
0.00166904
8.66764e-05
-0.000127778
0.000363506
-0.000397134
0.000798142
-0.000635513
0.00134384
-0.0008165
0.00195293
-0.000926492
0.00258083
-0.000967099
0.00319122
-0.000950775
0.00375879
-0.000895297
0.00426866
-0.000818741
0.00471358
-0.000735555
0.00508931
-0.00065372
0.00538881
-0.00057238
0.00559561
-0.000478929
0.00567471
-0.000344376
0.00556191
-0.000115419
0.00516054
0.000293064
0.00433435
0.000987364
0.00296642
0.00202856
0.00120554
0.00314698
0.00287463
0.000161641
-0.000289407
0.000570054
-0.000805514
0.00115373
-0.00121913
0.00183931
-0.00150201
0.00256059
-0.00164767
0.00326356
-0.00166996
0.00390975
-0.00159683
0.00447611
-0.00146152
0.00495166
-0.00129416
0.0053321
-0.00111586
0.00561335
-0.000934848
0.00578478
-0.000743704
0.00582247
-0.000516523
0.00568362
-0.000205453
0.00530461
0.000263655
0.00461626
0.00098146
0.00356954
0.00203413
0.00220187
0.0033963
0.000785681
0.00456327
0.00366037
0.000204934
-0.000494321
0.000689479
-0.00129
0.00133882
-0.00186837
0.00205459
-0.00221762
0.00275741
-0.00235028
0.00339101
-0.00230327
0.00392376
-0.00212927
0.00434531
-0.00188275
0.00465946
-0.001608
0.00487572
-0.00133183
0.00500096
-0.00105983
0.00503185
-0.000774362
0.00494848
-0.000432954
0.00471398
2.92037e-05
0.00427495
0.000702818
0.00359032
0.00166619
0.00264838
0.00297616
0.00152835
0.00451644
0.00048815
0.00560361
0.00414861
0.000223919
-0.000718209
0.000712716
-0.0017787
0.00132232
-0.00247779
0.00194185
-0.00283683
0.00249085
-0.00289882
0.00292211
-0.00273398
0.00322178
-0.00242832
0.00340168
-0.00206204
0.00348766
-0.00169341
0.0035078
-0.00135146
0.00348246
-0.00103405
0.00341664
-0.000708168
0.00329558
-0.000311582
0.0030825
0.000242541
0.00273979
0.00104573
0.00223269
0.00217346
0.00156584
0.00364316
0.000822747
0.00525971
0.000211256
0.00621528
0.00435997
0.000195703
-0.000913866
0.000573496
-0.00215633
0.000989949
-0.0028939
0.00134768
-0.00319396
0.00158501
-0.0031353
0.00167938
-0.00282733
0.00164637
-0.00239426
0.0015255
-0.0019402
0.00136403
-0.0015311
0.00120271
-0.00118944
0.00106627
-0.000897037
0.000958792
-0.000600224
0.000863692
-0.00021609
0.000750975
0.000355579
0.000592482
0.00120449
0.000375272
0.00239091
0.000124989
0.00389368
-7.76843e-05
0.00546266
-0.000121366
0.00625918
0.00423869
8.35909e-05
-0.000997386
0.000178153
-0.00225063
0.00019693
-0.00291208
9.41698e-05
-0.00309016
-0.000141704
-0.00289797
-0.000488572
-0.00247882
-0.000898854
-0.00198243
-0.0013157
-0.00152205
-0.00169004
-0.00115575
-0.00199023
-0.000888471
-0.00220366
-0.00068299
-0.00233252
-0.00047082
-0.00238679
-0.000161314
-0.0023679
0.000337141
-0.00227161
0.00110861
-0.00207736
0.00219704
-0.00174153
0.00355821
-0.0012131
0.00493456
-0.000524663
0.00557098
0.00371411
-0.000145112
-0.000852165
-0.000533872
-0.00186144
-0.0011125
-0.00233245
-0.00182458
-0.00237639
-0.00260579
-0.00211458
-0.00338675
-0.00169563
-0.0041087
-0.00125853
-0.00473273
-0.000896485
-0.00524098
-0.000646322
-0.00563094
-0.00049758
-0.00590537
-0.000407764
-0.00606064
-0.000314808
-0.00607684
-0.000144419
-0.00591639
0.00017733
-0.00552491
0.000717715
-0.0048441
0.00151677
-0.003822
0.00253656
-0.00246422
0.00357716
-0.000969944
0.00407697
0.00274427
-0.000421925
-0.000430085
-0.00135326
-0.000929468
-0.00254271
-0.00114155
-0.00379858
-0.00111819
-0.0049756
-0.00093471
-0.00598353
-0.000684854
-0.00679049
-0.000449084
-0.00741035
-0.00027464
-0.00788065
-0.000174457
-0.00824029
-0.000136694
-0.00851097
-0.000136045
-0.0086842
-0.000140659
-0.00871245
-0.000115331
-0.00852246
-1.18661e-05
-0.00799967
0.000195643
-0.00703176
0.000549474
-0.00553561
0.00104093
-0.0035386
0.00158056
-0.00136275
0.0019014
0.00138164
-0.000429938
-0.00135875
-0.00249875
-0.0036144
-0.00454592
-0.00522745
-0.00567347
-0.00594549
-0.00611781
-0.00625278
-0.00638744
-0.00652697
-0.00664134
-0.00665237
-0.00645599
-0.00590588
-0.00486443
-0.00328346
-0.00138176
)
;

boundaryField
{
    leftWall
    {
        type            calculated;
        value           nonuniform List<scalar> 10(0 0 0 0 0 6.77626e-21 0 0 0 0);
    }
    rightWall
    {
        type            calculated;
        value           nonuniform List<scalar> 10(1.0842e-19 0 0 0 0 0 0 0 0 0);
    }
    topWall
    {
        type            calculated;
        value           uniform 0;
    }
    bottomWall
    {
        type            calculated;
        value           uniform 0;
    }
    frontAndBackPlanes
    {
        type            empty;
    }
}


// ************************************************************************* //
