/*--------------------------------*- C++ -*----------------------------------*\
| =========                 |                                                 |
| \\      /  F ield         | OpenFOAM: The Open Source CFD Toolbox           |
|  \\    /   O peration     | Version:  2506                                  |
|   \\  /    A nd           | Website:  www.openfoam.com                      |
|    \\/     M anipulation  |                                                 |
\*---------------------------------------------------------------------------*/
FoamFile
{
    version     2.0;
    format      ascii;
    arch        "LSB;label=32;scalar=64";
    class       volVectorField;
    location    "9.8";
    object      U;
}
// * * * * * * * * * * * * * * * * * * * * * * * * * * * * * * * * * * * * * //

dimensions      [0 1 -1 0 0 0 0];

internalField   nonuniform List<vector> 
200
(
(-0.000265958 -0.000145688 0)
(-0.000323848 -0.000211469 0)
(-3.62092e-05 -0.000211307 0)
(0.00039588 -0.00025422 0)
(0.000896496 -0.000305195 0)
(0.0015045 -0.000357606 0)
(0.00222326 -0.000418531 0)
(0.00306041 -0.000494017 0)
(0.00403098 -0.000588818 0)
(0.00515336 -0.000706744 0)
(0.00644417 -0.000849817 0)
(0.00791158 -0.00101607 0)
(0.00954539 -0.00119519 0)
(0.0113 -0.00135988 0)
(0.0130591 -0.00144694 0)
(0.0145515 -0.00131009 0)
(0.0151975 -0.000614276 0)
(0.0140927 0.00125518 0)
(0.0102344 0.0045461 0)
(0.00312581 0.00659904 0)
(-3.4012e-05 -0.000271458 0)
(5.42825e-05 -0.000729052 0)
(0.000442836 -0.00115928 0)
(0.00105592 -0.00158957 0)
(0.0018703 -0.00198864 0)
(0.0028713 -0.00237452 0)
(0.00404928 -0.00277391 0)
(0.005402 -0.00320814 0)
(0.00693083 -0.00368784 0)
(0.00863292 -0.00420861 0)
(0.0104907 -0.00474406 0)
(0.0124578 -0.00523407 0)
(0.0144387 -0.00556498 0)
(0.016262 -0.00553553 0)
(0.0176473 -0.00479769 0)
(0.0181677 -0.00276224 0)
(0.0171902 0.00149634 0)
(0.0139523 0.00886262 0)
(0.00834108 0.0180429 0)
(0.00149027 0.0191359 0)
(2.25217e-06 -0.000318054 0)
(0.000143681 -0.00122442 0)
(0.000530468 -0.0021867 0)
(0.00114445 -0.00308309 0)
(0.00195805 -0.00389439 0)
(0.00294914 -0.00465369 0)
(0.00410338 -0.00540314 0)
(0.00541181 -0.0061711 0)
(0.00686488 -0.00696058 0)
(0.00844393 -0.00773942 0)
(0.0101101 -0.00842719 0)
(0.0117901 -0.00887551 0)
(0.0133589 -0.00883905 0)
(0.0146202 -0.00793329 0)
(0.0152905 -0.00557788 0)
(0.0149922 -0.000950993 0)
(0.0132619 0.00690181 0)
(0.00988021 0.0181523 0)
(0.00525117 0.0294699 0)
(0.000728865 0.0265833 0)
(-4.97423e-06 -0.000438256 0)
(8.86784e-05 -0.00174269 0)
(0.000368943 -0.0031259 0)
(0.000827927 -0.00441023 0)
(0.00144611 -0.00556554 0)
(0.00220449 -0.00663364 0)
(0.00309034 -0.00766764 0)
(0.00409584 -0.00869882 0)
(0.00521264 -0.00971889 0)
(0.00642393 -0.0106655 0)
(0.00769421 -0.0114041 0)
(0.00895645 -0.0117031 0)
(0.0100979 -0.0112034 0)
(0.0109485 -0.00938208 0)
(0.0112772 -0.00552029 0)
(0.010791 0.00127451 0)
(0.00924001 0.0117663 0)
(0.00655826 0.0254815 0)
(0.00320914 0.0374481 0)
(0.000371161 0.0309276 0)
(-1.53824e-05 -0.000455057 0)
(-3.16942e-05 -0.00199274 0)
(5.98982e-05 -0.0036726 0)
(0.000266525 -0.00524255 0)
(0.000577681 -0.00665075 0)
(0.000981815 -0.00794502 0)
(0.00147301 -0.00919051 0)
(0.00205203 -0.0104243 0)
(0.00272234 -0.0116317 0)
(0.0034832 -0.0127265 0)
(0.00432069 -0.013529 0)
(0.00519402 -0.0137346 0)
(0.00602127 -0.0128878 0)
(0.00666988 -0.0103579 0)
(0.00695898 -0.00534223 0)
(0.00667182 0.00304291 0)
(0.00564221 0.0153687 0)
(0.0038718 0.0305999 0)
(0.00174749 0.0426139 0)
(0.000159648 0.0333778 0)
(-3.15431e-05 -0.000323649 0)
(-0.000181381 -0.00189168 0)
(-0.000314294 -0.00371243 0)
(-0.000413105 -0.00543816 0)
(-0.000474974 -0.00698697 0)
(-0.000504208 -0.00841202 0)
(-0.000497895 -0.0097945 0)
(-0.000442533 -0.0111852 0)
(-0.000316799 -0.0125739 0)
(-9.7607e-05 -0.0138642 0)
(0.000235501 -0.0148432 0)
(0.000680617 -0.0151421 0)
(0.001198 -0.0142121 0)
(0.00170135 -0.0113152 0)
(0.00205851 -0.00557188 0)
(0.00211418 0.00387895 0)
(0.00175327 0.0174106 0)
(0.00105233 0.0335058 0)
(0.000275603 0.0453014 0)
(-5.18108e-05 0.0343545 0)
(-4.58274e-05 -3.60007e-05 0)
(-0.000311998 -0.0014137 0)
(-0.00065566 -0.00319887 0)
(-0.00106178 -0.00492008 0)
(-0.00152318 -0.00646118 0)
(-0.00203914 -0.00788443 0)
(-0.00259967 -0.00929387 0)
(-0.00318123 -0.0107635 0)
(-0.00374707 -0.0123002 0)
(-0.0042495 -0.0138132 0)
(-0.00463486 -0.0150741 0)
(-0.00485535 -0.0156719 0)
(-0.00488632 -0.0149743 0)
(-0.00474049 -0.0121365 0)
(-0.00445994 -0.00619945 0)
(-0.00407459 0.00365985 0)
(-0.0035956 0.017567 0)
(-0.00284036 0.033628 0)
(-0.00173024 0.044865 0)
(-0.00032681 0.033552 0)
(-4.36644e-05 0.000345971 0)
(-0.000328812 -0.000655908 0)
(-0.000785264 -0.00220061 0)
(-0.00142416 -0.00369912 0)
(-0.00224305 -0.00501473 0)
(-0.00323671 -0.00622625 0)
(-0.00439304 -0.00746334 0)
(-0.00569198 -0.0088279 0)
(-0.0071021 -0.0103572 0)
(-0.00857453 -0.0119904 0)
(-0.0100377 -0.0135195 0)
(-0.0113971 -0.014529 0)
(-0.0125397 -0.0143502 0)
(-0.0133365 -0.0120865 0)
(-0.0136245 -0.00676517 0)
(-0.01314 0.00234407 0)
(-0.0116142 0.0151359 0)
(-0.00878668 0.0297022 0)
(-0.00492809 0.0398562 0)
(-0.000838743 0.0299769 0)
(8.53477e-06 0.000616716 0)
(-7.23852e-05 5.5499e-05 0)
(-0.000432398 -0.00102335 0)
(-0.00111746 -0.00203176 0)
(-0.00211327 -0.00286551 0)
(-0.00339223 -0.00361751 0)
(-0.00494285 -0.00442097 0)
(-0.00677355 -0.00538542 0)
(-0.00890281 -0.00657302 0)
(-0.0113406 -0.00797206 0)
(-0.0140634 -0.00944807 0)
(-0.0169822 -0.0106761 0)
(-0.0199041 -0.011092 0)
(-0.0224932 -0.00993241 0)
(-0.0242451 -0.00640692 0)
(-0.0244599 3.45444e-05 0)
(-0.0221829 0.00935096 0)
(-0.0170411 0.0201506 0)
(-0.00966263 0.0281525 0)
(-0.00171119 0.022051 0)
(0.000146796 0.000328695 0)
(0.000374139 0.00018126 0)
(0.000283786 -0.000116367 0)
(-0.00015411 -0.00035386 0)
(-0.000877744 -0.000518983 0)
(-0.00182389 -0.000656415 0)
(-0.00298809 -0.000814126 0)
(-0.00441174 -0.00103054 0)
(-0.00616982 -0.0013338 0)
(-0.00835496 -0.00173761 0)
(-0.0110495 -0.00222541 0)
(-0.0142725 -0.00272182 0)
(-0.0178979 -0.00306637 0)
(-0.0215645 -0.00302307 0)
(-0.0246153 -0.00234004 0)
(-0.0261049 -0.000806931 0)
(-0.0249796 0.00175139 0)
(-0.0204307 0.00521146 0)
(-0.0127007 0.00839819 0)
(-0.00340376 0.00756914 0)
)
;

boundaryField
{
    leftWall
    {
        type            fixedValue;
        value           uniform (0 0 0);
    }
    rightWall
    {
        type            fixedValue;
        value           uniform (0 0 0);
    }
    topWall
    {
        type            fixedValue;
        value           uniform (0 0 0);
    }
    bottomWall
    {
        type            fixedValue;
        value           uniform (0 0 0);
    }
    frontAndBackPlanes
    {
        type            empty;
    }
}


// ************************************************************************* //
