/*--------------------------------*- C++ -*----------------------------------*\
| =========                 |                                                 |
| \\      /  F ield         | OpenFOAM: The Open Source CFD Toolbox           |
|  \\    /   O peration     | Version:  2506                                  |
|   \\  /    A nd           | Website:  www.openfoam.com                      |
|    \\/     M anipulation  |                                                 |
\*---------------------------------------------------------------------------*/
FoamFile
{
    version     2.0;
    format      ascii;
    arch        "LSB;label=32;scalar=64";
    class       volVectorField;
    location    "85.8";
    object      U;
}
// * * * * * * * * * * * * * * * * * * * * * * * * * * * * * * * * * * * * * //

dimensions      [0 1 -1 0 0 0 0];

internalField   nonuniform List<vector> 
200
(
(0.000228245 -0.000787318 0)
(0.00153217 -0.00105309 0)
(0.00307908 -0.000824082 0)
(0.00441402 -0.000507884 0)
(0.00533455 -0.000254004 0)
(0.00592181 -0.000104549 0)
(0.00630719 -5.59618e-05 0)
(0.00661734 -8.68311e-05 0)
(0.00695487 -0.000175149 0)
(0.00739645 -0.00030639 0)
(0.00799819 -0.000475075 0)
(0.00880114 -0.000681388 0)
(0.00983034 -0.00092214 0)
(0.0110793 -0.00117369 0)
(0.0124651 -0.00136214 0)
(0.0137273 -0.00131023 0)
(0.0142709 -0.000650138 0)
(0.0131709 0.0011888 0)
(0.00947396 0.00431578 0)
(0.00286696 0.00607515 0)
(0.000381908 -0.00333542 0)
(0.00256138 -0.00545199 0)
(0.00507144 -0.00518266 0)
(0.00734486 -0.00402473 0)
(0.00909498 -0.00279742 0)
(0.0103435 -0.00187602 0)
(0.0112321 -0.00136502 0)
(0.0119183 -0.00123316 0)
(0.0125335 -0.0014003 0)
(0.0131714 -0.00178375 0)
(0.0138877 -0.00231351 0)
(0.0147 -0.00292207 0)
(0.0155798 -0.0035089 0)
(0.016428 -0.00387677 0)
(0.0170316 -0.00363927 0)
(0.0170087 -0.00211573 0)
(0.0157488 0.00168989 0)
(0.0125497 0.00854022 0)
(0.00734363 0.0169353 0)
(0.00126226 0.0174378 0)
(0.000416956 -0.00628912 0)
(0.00273732 -0.0105768 0)
(0.00531333 -0.0103558 0)
(0.00762898 -0.00833375 0)
(0.00941426 -0.00606344 0)
(0.0106942 -0.00425818 0)
(0.0116014 -0.00313052 0)
(0.0122739 -0.00263982 0)
(0.012818 -0.00264609 0)
(0.0133022 -0.00299109 0)
(0.0137588 -0.0035253 0)
(0.0141845 -0.00409121 0)
(0.0145329 -0.00446703 0)
(0.014694 -0.00427539 0)
(0.0144648 -0.00287803 0)
(0.0135128 0.000672619 0)
(0.011486 0.00734969 0)
(0.00821255 0.017253 0)
(0.00411884 0.0270298 0)
(0.000490994 0.0235938 0)
(0.000403919 -0.00926263 0)
(0.00254518 -0.0154987 0)
(0.00476654 -0.0151144 0)
(0.00664717 -0.0121473 0)
(0.00800724 -0.00885151 0)
(0.00892066 -0.0062201 0)
(0.00952709 -0.00452067 0)
(0.00994333 -0.0036701 0)
(0.0102437 -0.00345799 0)
(0.0104671 -0.00365847 0)
(0.0106277 -0.00406245 0)
(0.0107194 -0.00444879 0)
(0.0107084 -0.00450599 0)
(0.0105149 -0.00372242 0)
(0.00999162 -0.00129644 0)
(0.00890979 0.00380394 0)
(0.00712112 0.0123522 0)
(0.00462987 0.0238174 0)
(0.00192278 0.0334396 0)
(0.000106551 0.0265155 0)
(0.000368224 -0.0119353 0)
(0.00210908 -0.0195693 0)
(0.00367795 -0.0187111 0)
(0.00482458 -0.0147515 0)
(0.00551393 -0.0105576 0)
(0.00588306 -0.00729281 0)
(0.00607139 -0.00519633 0)
(0.00616386 -0.00410062 0)
(0.00619742 -0.00372088 0)
(0.00618404 -0.0037852 0)
(0.0061271 -0.00405757 0)
(0.00602429 -0.0042866 0)
(0.00585744 -0.00410235 0)
(0.0055738 -0.00289405 0)
(0.0050658 0.000250105 0)
(0.00421535 0.00634823 0)
(0.00298299 0.0159611 0)
(0.00149886 0.0279706 0)
(0.000179323 0.0367393 0)
(-0.000168528 0.0273421 0)
(0.000298645 -0.0140635 0)
(0.00137639 -0.022288 0)
(0.00198303 -0.0206253 0)
(0.0021381 -0.0157401 0)
(0.00199593 -0.0109183 0)
(0.00173817 -0.00732845 0)
(0.00147026 -0.00508963 0)
(0.00122383 -0.00392643 0)
(0.000994875 -0.00349793 0)
(0.000774186 -0.00351783 0)
(0.000557207 -0.00374861 0)
(0.000338015 -0.00392165 0)
(9.77928e-05 -0.00361833 0)
(-0.000204251 -0.00215562 0)
(-0.000622316 0.00141839 0)
(-0.0011348 0.00801814 0)
(-0.00162308 0.0179164 0)
(-0.00183719 0.0295195 0)
(-0.00149443 0.0369686 0)
(-0.000367868 0.0263671 0)
(0.000169398 -0.0152309 0)
(0.000159412 -0.0229409 0)
(-0.000608145 -0.0202122 0)
(-0.00170466 -0.0146769 0)
(-0.00279851 -0.00969657 0)
(-0.00373124 -0.00621389 0)
(-0.00447732 -0.0041477 0)
(-0.00507351 -0.00312876 0)
(-0.00556552 -0.00280145 0)
(-0.00598644 -0.00289339 0)
(-0.00635801 -0.00317221 0)
(-0.00669969 -0.00335299 0)
(-0.00703015 -0.00299661 0)
(-0.00734789 -0.00144397 0)
(-0.00758728 0.00213548 0)
(-0.0075547 0.00844687 0)
(-0.0069739 0.0175465 0)
(-0.00557145 0.0277731 0)
(-0.00335075 0.0337731 0)
(-0.000622301 0.023462 0)
(-0.00012985 -0.0146779 0)
(-0.00186935 -0.0204197 0)
(-0.0044032 -0.0166982 0)
(-0.00689456 -0.0112107 0)
(-0.00891752 -0.00678299 0)
(-0.0104242 -0.00393408 0)
(-0.0115213 -0.00238929 0)
(-0.0123395 -0.00174209 0)
(-0.0129853 -0.00166498 0)
(-0.0135334 -0.00192173 0)
(-0.0140322 -0.00230594 0)
(-0.014504 -0.00256033 0)
(-0.0149308 -0.00230801 0)
(-0.0152221 -0.00102507 0)
(-0.0151596 0.00190094 0)
(-0.0144056 0.00697849 0)
(-0.0125784 0.0142012 0)
(-0.00943709 0.0222072 0)
(-0.00527968 0.0267793 0)
(-0.00090199 0.0185029 0)
(-0.000730278 -0.0112846 0)
(-0.00478739 -0.0137745 0)
(-0.00905032 -0.00984682 0)
(-0.0124782 -0.00556976 0)
(-0.0147769 -0.00261653 0)
(-0.016193 -0.000996303 0)
(-0.0170585 -0.000315575 0)
(-0.0176366 -0.000210691 0)
(-0.0181019 -0.000434946 0)
(-0.0185599 -0.000831285 0)
(-0.0190669 -0.00127491 0)
(-0.0196276 -0.00161559 0)
(-0.0201765 -0.00163445 0)
(-0.0205454 -0.00102682 0)
(-0.0204236 0.000579524 0)
(-0.019335 0.00355009 0)
(-0.016782 0.00795669 0)
(-0.0124824 0.0130307 0)
(-0.00688734 0.0162137 0)
(-0.001176 0.0115634 0)
(-0.00179085 -0.00383458 0)
(-0.00649834 -0.00359038 0)
(-0.010118 -0.00187656 0)
(-0.0122495 -0.000575792 0)
(-0.0131796 9.70595e-05 0)
(-0.013448 0.000346221 0)
(-0.0134455 0.000364513 0)
(-0.0133884 0.00027042 0)
(-0.0133918 0.000126572 0)
(-0.0135221 -3.87865e-05 0)
(-0.013813 -0.000212616 0)
(-0.0142636 -0.000380238 0)
(-0.014822 -0.00051072 0)
(-0.0153582 -0.000546215 0)
(-0.0156257 -0.000388827 0)
(-0.0152575 0.000115889 0)
(-0.0137549 0.00110584 0)
(-0.0106993 0.00253297 0)
(-0.00630001 0.00381042 0)
(-0.00151226 0.00325173 0)
)
;

boundaryField
{
    leftWall
    {
        type            fixedValue;
        value           uniform (0 0 0);
    }
    rightWall
    {
        type            fixedValue;
        value           uniform (0 0 0);
    }
    topWall
    {
        type            fixedValue;
        value           uniform (0 0 0);
    }
    bottomWall
    {
        type            fixedValue;
        value           uniform (0 0 0);
    }
    frontAndBackPlanes
    {
        type            empty;
    }
}


// ************************************************************************* //
