/*--------------------------------*- C++ -*----------------------------------*\
| =========                 |                                                 |
| \\      /  F ield         | OpenFOAM: The Open Source CFD Toolbox           |
|  \\    /   O peration     | Version:  2506                                  |
|   \\  /    A nd           | Website:  www.openfoam.com                      |
|    \\/     M anipulation  |                                                 |
\*---------------------------------------------------------------------------*/
FoamFile
{
    version     2.0;
    format      ascii;
    arch        "LSB;label=32;scalar=64";
    class       surfaceScalarField;
    location    "28.6";
    object      phi;
}
// * * * * * * * * * * * * * * * * * * * * * * * * * * * * * * * * * * * * * //

dimensions      [1 0 -1 0 0 0 0];

oriented        oriented;

internalField   nonuniform List<scalar> 
370
(
-6.33747e-05
-4.20622e-05
5.95682e-05
-0.000122942
0.000263611
-0.000204041
0.000536776
-0.000273164
0.000854657
-0.000317879
0.00119201
-0.000337353
0.00152842
-0.000336408
0.00185077
-0.000322354
0.00215381
-0.00030304
0.00243913
-0.000285322
0.00271309
-0.000273964
0.00298375
-0.000270665
0.00325568
-0.000271934
0.00352267
-0.000266999
0.00375417
-0.000231502
0.00386693
-0.00011276
0.0037097
0.00015724
0.00305238
0.000657352
0.00166826
0.00138416
0.00166829
8.98125e-05
-0.00013187
0.000373242
-0.000406358
0.000815051
-0.000645827
0.00136572
-0.000823801
0.00197574
-0.000927864
0.00259996
-0.000961536
0.00320274
-0.000939148
0.0037602
-0.000879763
0.00425918
-0.000801979
0.00469403
-0.000720132
0.0050618
-0.000641693
0.00535627
-0.000565099
0.00556136
-0.000476993
0.00564202
-0.000347638
0.00553359
-0.000123056
0.00513832
0.000282532
0.00431951
0.000976074
0.00295835
0.00201856
0.00120282
0.00313976
0.00287115
0.000166644
-0.000298503
0.000585022
-0.000824702
0.00117856
-0.00123931
0.00186978
-0.00151494
0.00259029
-0.00164827
0.0032861
-0.00165722
0.0039204
-0.0015733
0.00447255
-0.00143176
0.00493393
-0.00126322
0.00530211
-0.00108817
0.00557426
-0.000913709
0.00574039
-0.000731116
0.00577676
-0.000513258
0.00564041
-0.000211204
0.00526707
0.000250351
0.0045866
0.000963053
0.00354895
0.00201379
0.00219024
0.00337735
0.000781613
0.00454849
0.00365284
0.00021183
-0.000510312
0.000709022
-0.00132183
0.0013692
-0.00189937
0.00208862
-0.00223418
0.00278597
-0.00234538
0.00340634
-0.00227729
0.00392143
-0.00208806
0.00432455
-0.00183454
0.00462243
-0.00156077
0.0048264
-0.00129184
0.00494412
-0.00103116
0.00497228
-0.000759028
0.00489048
-0.000431255
0.00466172
1.77245e-05
0.00423077
0.000681443
0.00355606
0.00163787
0.00262475
0.0029452
0.001515
0.00448723
0.000483506
0.00558013
0.00413644
0.000232406
-0.000742684
0.000734941
-0.00182425
0.00135365
-0.00251786
0.00197182
-0.00285199
0.00250824
-0.0028813
0.00291928
-0.00268772
0.00319641
-0.00236455
0.00335619
-0.0019937
0.00342736
-0.00163138
0.00343905
-0.00130301
0.00341127
-0.00100293
0.00334796
-0.000695339
0.00323314
-0.000316113
0.00302848
0.000222657
0.00269609
0.00101404
0.00219978
0.00213435
0.00154349
0.00360166
0.000810047
0.00522086
0.000206967
0.0061834
0.00434351
0.00020474
-0.000947372
0.000594591
-0.00221392
0.00101533
-0.00293821
0.00136484
-0.00320084
0.00158298
-0.00309853
0.00165346
-0.00275714
0.00159868
-0.00230872
0.00146272
-0.00185678
0.00129427
-0.0014621
0.00113304
-0.0011411
0.00100161
-0.000870944
0.000901874
-0.000595129
0.00081565
-0.000229489
0.000711898
0.000326738
0.000561871
0.00116435
0.00035246
0.00234401
0.000109446
0.00384493
-8.6489e-05
0.00541708
-0.000124266
0.0062214
0.00421934
9.09073e-05
-0.0010382
0.000191807
-0.00231452
0.000207286
-0.00295302
9.06376e-05
-0.00308306
-0.000164342
-0.00284204
-0.000528386
-0.00239147
-0.000948417
-0.0018872
-0.00136616
-0.00143781
-0.00173447
-0.00109284
-0.00202499
-0.000849836
-0.00222824
-0.000667082
-0.00234843
-0.00047439
-0.00239617
-0.000181232
-0.00237358
0.000304613
-0.00227547
0.00106666
-0.0020805
0.00214944
-0.00174406
0.00350886
-0.0012144
0.00488777
-0.000525008
0.00553226
0.00369442
-0.000144161
-0.000893907
-0.000537876
-0.0019203
-0.00112741
-0.00236237
-0.00185119
-0.00235749
-0.00263826
-0.00205279
-0.00341538
-0.0016122
-0.00412476
-0.00117599
-0.00473125
-0.000829905
-0.00522136
-0.000601639
-0.00559608
-0.000474229
-0.00586017
-0.000402205
-0.0060107
-0.000323116
-0.00602751
-0.000163711
-0.00587246
0.000150216
-0.00548903
0.000683841
-0.00481753
0.00147848
-0.00380457
0.00249638
-0.00245479
0.00353838
-0.000966822
0.00404456
0.0027277
-0.000435255
-0.000458465
-0.00138985
-0.000964971
-0.00259519
-0.00115545
-0.00384919
-0.00110109
-0.00500509
-0.000894101
-0.00597873
-0.00063586
-0.00674754
-0.000404889
-0.00733328
-0.000242346
-0.00777808
-0.000155405
-0.00812228
-0.000128877
-0.00838696
-0.000136533
-0.00856238
-0.0001468
-0.00860019
-0.000125071
-0.0084229
-2.62756e-05
-0.00791864
0.0001803
-0.00697078
0.00053124
-0.00549478
0.00102089
-0.00351642
0.00156043
-0.00135561
0.00188403
0.0013722
-0.000458281
-0.00142248
-0.00257623
-0.00367468
-0.00456564
-0.00519832
-0.00560035
-0.00584029
-0.00599373
-0.00612104
-0.0062563
-0.00640206
-0.00652623
-0.00655172
-0.00637072
-0.00583888
-0.00481748
-0.00325664
-0.00137233
)
;

boundaryField
{
    leftWall
    {
        type            calculated;
        value           nonuniform List<scalar> 10(0 0 0 0 3.38813e-21 6.77626e-21 0 -1.35525e-20 0 0);
    }
    rightWall
    {
        type            calculated;
        value           uniform 0;
    }
    topWall
    {
        type            calculated;
        value           uniform 0;
    }
    bottomWall
    {
        type            calculated;
        value           uniform 0;
    }
    frontAndBackPlanes
    {
        type            empty;
    }
}


// ************************************************************************* //
