/*--------------------------------*- C++ -*----------------------------------*\
| =========                 |                                                 |
| \\      /  F ield         | OpenFOAM: The Open Source CFD Toolbox           |
|  \\    /   O peration     | Version:  2506                                  |
|   \\  /    A nd           | Website:  www.openfoam.com                      |
|    \\/     M anipulation  |                                                 |
\*---------------------------------------------------------------------------*/
FoamFile
{
    version     2.0;
    format      ascii;
    arch        "LSB;label=32;scalar=64";
    class       volVectorField;
    location    "101.2";
    object      U;
}
// * * * * * * * * * * * * * * * * * * * * * * * * * * * * * * * * * * * * * //

dimensions      [0 1 -1 0 0 0 0];

internalField   nonuniform List<vector> 
200
(
(0.000352627 -0.000997539 0)
(0.00198069 -0.00129674 0)
(0.00379272 -0.000978478 0)
(0.00528657 -0.000558595 0)
(0.006254 -0.000230648 0)
(0.00680336 -4.14795e-05 0)
(0.00710266 2.12044e-05 0)
(0.00730651 -1.05278e-05 0)
(0.00753416 -0.000105784 0)
(0.00786975 -0.000244006 0)
(0.00837038 -0.000416478 0)
(0.0090744 -0.000622309 0)
(0.0100033 -0.000858866 0)
(0.0111482 -0.00110443 0)
(0.0124269 -0.00128782 0)
(0.013584 -0.00123446 0)
(0.0140423 -0.00058207 0)
(0.0128974 0.00121591 0)
(0.00923173 0.00424713 0)
(0.00278234 0.00590277 0)
(0.000455352 -0.00407113 0)
(0.0029728 -0.00645204 0)
(0.00578718 -0.00592395 0)
(0.00826352 -0.00438361 0)
(0.0100935 -0.00282893 0)
(0.0113216 -0.00168679 0)
(0.0121249 -0.00105513 0)
(0.0126912 -0.000874823 0)
(0.0131726 -0.00103502 0)
(0.0136741 -0.00142792 0)
(0.0142552 -0.00196715 0)
(0.014934 -0.00257774 0)
(0.0156813 -0.00315973 0)
(0.0163989 -0.00352325 0)
(0.0168793 -0.00329422 0)
(0.0167525 -0.0018083 0)
(0.015422 0.0019017 0)
(0.0122234 0.00854952 0)
(0.00711367 0.0166304 0)
(0.00121383 0.0169402 0)
(0.000461947 -0.00740515 0)
(0.0029876 -0.0121214 0)
(0.00573199 -0.0115188 0)
(0.0081447 -0.00891412 0)
(0.00994926 -0.00613418 0)
(0.0111897 -0.00397559 0)
(0.0120223 -0.00264496 0)
(0.0126031 -0.0020624 0)
(0.01305 -0.00204349 0)
(0.0134366 -0.00239318 0)
(0.013797 -0.00293749 0)
(0.0141279 -0.00350755 0)
(0.0143825 -0.00388267 0)
(0.0144525 -0.00369834 0)
(0.0141409 -0.00233984 0)
(0.0131255 0.00110643 0)
(0.0110894 0.00755708 0)
(0.00787623 0.0170948 0)
(0.0039139 0.0264186 0)
(0.000455761 0.0228416 0)
(0.000426313 -0.0105789 0)
(0.00263852 -0.017276 0)
(0.00487668 -0.0163993 0)
(0.00672607 -0.0127261 0)
(0.00802371 -0.00883313 0)
(0.00886426 -0.00580205 0)
(0.00940163 -0.00388318 0)
(0.00975854 -0.00294064 0)
(0.0100092 -0.00270944 0)
(0.0101899 -0.00292116 0)
(0.010312 -0.00333992 0)
(0.0103669 -0.00373301 0)
(0.0103194 -0.00379175 0)
(0.0100897 -0.00302334 0)
(0.00953469 -0.000664328 0)
(0.00844525 0.00425398 0)
(0.00669369 0.0124615 0)
(0.00429954 0.0234253 0)
(0.00174138 0.0325071 0)
(8.00054e-05 0.0255476 0)
(0.000371078 -0.013294 0)
(0.00206996 -0.0212966 0)
(0.00353138 -0.0198456 0)
(0.00454817 -0.0151334 0)
(0.00512097 -0.0103495 0)
(0.00540526 -0.00672318 0)
(0.00554329 -0.00445308 0)
(0.00561344 -0.00330414 0)
(0.00564301 -0.00293166 0)
(0.00563561 -0.00302222 0)
(0.00558902 -0.00331645 0)
(0.00549774 -0.00355421 0)
(0.00534165 -0.00337029 0)
(0.00506779 -0.00217849 0)
(0.0045682 0.00087898 0)
(0.00375304 0.00673169 0)
(0.00258697 0.0159089 0)
(0.00121655 0.0273145 0)
(5.59521e-05 0.0354993 0)
(-0.00017053 0.0261925 0)
(0.000287976 -0.0153427 0)
(0.00124165 -0.023753 0)
(0.00166055 -0.0214287 0)
(0.00163992 -0.0158228 0)
(0.00137534 -0.0104963 0)
(0.00105499 -0.00663944 0)
(0.000772118 -0.00430491 0)
(0.000541335 -0.0031411 0)
(0.000344549 -0.00274965 0)
(0.00016331 -0.00280947 0)
(-1.22471e-05 -0.00306606 0)
(-0.000190738 -0.00324587 0)
(-0.000391912 -0.00293867 0)
(-0.000651179 -0.00149615 0)
(-0.00101491 0.00196455 0)
(-0.00145823 0.0082707 0)
(-0.00186371 0.0176651 0)
(-0.00198223 0.0286088 0)
(-0.00154399 0.0354919 0)
(-0.000365756 0.0251092 0)
(0.000156466 -0.0163392 0)
(-2.45926e-05 -0.0240252 0)
(-0.0010086 -0.0206102 0)
(-0.00226399 -0.0144635 0)
(-0.00344115 -0.00912276 0)
(-0.00439096 -0.00549167 0)
(-0.00511017 -0.00340587 0)
(-0.00565548 -0.00242735 0)
(-0.00608564 -0.00215514 0)
(-0.00644127 -0.00229171 0)
(-0.006748 -0.00259498 0)
(-0.00702602 -0.00278239 0)
(-0.00729139 -0.00243126 0)
(-0.0075371 -0.000920112 0)
(-0.00769284 0.00251719 0)
(-0.0075777 0.00852292 0)
(-0.00693142 0.0171276 0)
(-0.0054952 0.0267302 0)
(-0.00327954 0.0322317 0)
(-0.000602695 0.0222279 0)
(-0.000161451 -0.0155682 0)
(-0.00208813 -0.0211086 0)
(-0.0047937 -0.0167608 0)
(-0.00737997 -0.0108155 0)
(-0.00941506 -0.00617349 0)
(-0.0108746 -0.00327749 0)
(-0.0118932 -0.00176843 0)
(-0.0126203 -0.00118928 0)
(-0.0131703 -0.00117847 0)
(-0.0136235 -0.00148053 0)
(-0.0140306 -0.00188722 0)
(-0.0144125 -0.00214949 0)
(-0.0147489 -0.00191068 0)
(-0.0149487 -0.000681382 0)
(-0.0148 0.00210581 0)
(-0.0139905 0.00692094 0)
(-0.01216 0.0137347 0)
(-0.00908574 0.0212337 0)
(-0.00506069 0.0254159 0)
(-0.000858501 0.0174427 0)
(-0.000783468 -0.0119075 0)
(-0.00505022 -0.0141016 0)
(-0.00942118 -0.00969685 0)
(-0.0128377 -0.00514577 0)
(-0.0150376 -0.00211292 0)
(-0.0163106 -0.000523294 0)
(-0.017033 8.24267e-05 0)
(-0.0174873 0.000113836 0)
(-0.0178352 -0.000165672 0)
(-0.0181824 -0.000597217 0)
(-0.0185877 -0.00105638 0)
(-0.0190504 -0.00140069 0)
(-0.0195033 -0.0014263 0)
(-0.0197835 -0.000850147 0)
(-0.0195925 0.000674179 0)
(-0.0184867 0.00348618 0)
(-0.0159968 0.00763632 0)
(-0.0118622 0.012382 0)
(-0.00652161 0.0153032 0)
(-0.00110727 0.0108445 0)
(-0.00190015 -0.00406111 0)
(-0.00680551 -0.00366251 0)
(-0.0104325 -0.00179407 0)
(-0.012446 -0.000432303 0)
(-0.0132157 0.000240396 0)
(-0.0133357 0.00046148 0)
(-0.0132019 0.000440714 0)
(-0.0130279 0.000321426 0)
(-0.0129449 0.000165993 0)
(-0.0130099 -6.88183e-06 0)
(-0.0132397 -0.000182622 0)
(-0.0136294 -0.000346697 0)
(-0.0141254 -0.000471106 0)
(-0.0146004 -0.000502539 0)
(-0.0148207 -0.000350095 0)
(-0.0144372 0.000129297 0)
(-0.0129813 0.00105919 0)
(-0.0100676 0.00238939 0)
(-0.00590602 0.00356872 0)
(-0.00140974 0.00302902 0)
)
;

boundaryField
{
    leftWall
    {
        type            fixedValue;
        value           uniform (0 0 0);
    }
    rightWall
    {
        type            fixedValue;
        value           uniform (0 0 0);
    }
    topWall
    {
        type            fixedValue;
        value           uniform (0 0 0);
    }
    bottomWall
    {
        type            fixedValue;
        value           uniform (0 0 0);
    }
    frontAndBackPlanes
    {
        type            empty;
    }
}


// ************************************************************************* //
