/*--------------------------------*- C++ -*----------------------------------*\
| =========                 |                                                 |
| \\      /  F ield         | OpenFOAM: The Open Source CFD Toolbox           |
|  \\    /   O peration     | Version:  2506                                  |
|   \\  /    A nd           | Website:  www.openfoam.com                      |
|    \\/     M anipulation  |                                                 |
\*---------------------------------------------------------------------------*/
FoamFile
{
    version     2.0;
    format      ascii;
    arch        "LSB;label=32;scalar=64";
    class       volVectorField;
    location    "130";
    object      U;
}
// * * * * * * * * * * * * * * * * * * * * * * * * * * * * * * * * * * * * * //

dimensions      [0 1 -1 0 0 0 0];

internalField   nonuniform List<vector> 
200
(
(0.000536355 -0.00131523 0)
(0.00264764 -0.00166786 0)
(0.00486345 -0.00122093 0)
(0.00660888 -0.000649933 0)
(0.00766709 -0.000212185 0)
(0.00818342 3.84981e-05 0)
(0.00837671 0.000126524 0)
(0.0084403 9.83023e-05 0)
(0.00851638 -3.24172e-06 0)
(0.00870053 -0.000148909 0)
(0.00905309 -0.000325357 0)
(0.00960993 -0.0005298 0)
(0.0103876 -0.000759439 0)
(0.0113728 -0.000993887 0)
(0.0124804 -0.0011645 0)
(0.0134587 -0.00110048 0)
(0.0137577 -0.000453124 0)
(0.0125107 0.0012814 0)
(0.00886602 0.00415251 0)
(0.00264944 0.00563017 0)
(0.000560757 -0.00516297 0)
(0.00356503 -0.00794458 0)
(0.0068229 -0.00705618 0)
(0.00960404 -0.00497409 0)
(0.011568 -0.00294961 0)
(0.0127893 -0.0014823 0)
(0.0134922 -0.000662599 0)
(0.0139063 -0.000395165 0)
(0.0142129 -0.000528695 0)
(0.0145326 -0.000921638 0)
(0.014931 -0.00146465 0)
(0.0154265 -0.00207035 0)
(0.0159881 -0.00263566 0)
(0.0165171 -0.00297624 0)
(0.0168109 -0.00273269 0)
(0.016512 -0.00126803 0)
(0.0150489 0.0023247 0)
(0.0118145 0.00866945 0)
(0.00680981 0.0162384 0)
(0.0011486 0.0161951 0)
(0.00052358 -0.0090316 0)
(0.00332915 -0.0143818 0)
(0.00630356 -0.0132513 0)
(0.00885085 -0.00983201 0)
(0.0106863 -0.00633494 0)
(0.0118801 -0.0036715 0)
(0.0126201 -0.00204064 0)
(0.0130868 -0.00131024 0)
(0.0134126 -0.00123703 0)
(0.0136778 -0.00157701 0)
(0.0139183 -0.00212215 0)
(0.0141299 -0.00268499 0)
(0.0142644 -0.00304085 0)
(0.0142138 -0.00283611 0)
(0.013786 -0.00148592 0)
(0.0126761 0.00185837 0)
(0.0106135 0.00802245 0)
(0.00746335 0.0170353 0)
(0.00365972 0.0256481 0)
(0.000412838 0.0217739 0)
(0.000454114 -0.0124664 0)
(0.00274649 -0.019831 0)
(0.00498989 -0.0182753 0)
(0.00678248 -0.0136254 0)
(0.00798636 -0.0089057 0)
(0.00872486 -0.00531688 0)
(0.00917075 -0.00308431 0)
(0.00945355 -0.00200029 0)
(0.00964596 -0.00172709 0)
(0.00977931 -0.00193978 0)
(0.00985998 -0.00236539 0)
(0.0098756 -0.00275229 0)
(0.00978861 -0.00279042 0)
(0.00951992 -0.00200649 0)
(0.00892567 0.000313937 0)
(0.00784106 0.00503299 0)
(0.00614407 0.0128104 0)
(0.00387868 0.0230746 0)
(0.00151318 0.0313319 0)
(4.69618e-05 0.0242148 0)
(0.000370483 -0.0152115 0)
(0.0019887 -0.0237373 0)
(0.00328079 -0.0214741 0)
(0.00410352 -0.0157337 0)
(0.0045072 -0.0101462 0)
(0.00467107 -0.00602686 0)
(0.00474013 -0.00351592 0)
(0.00478263 -0.00228493 0)
(0.00481158 -0.00191048 0)
(0.00481868 -0.00202521 0)
(0.00479375 -0.00233736 0)
(0.00472616 -0.00257167 0)
(0.00459299 -0.00236673 0)
(0.00434258 -0.00116757 0)
(0.00387663 0.00181187 0)
(0.0031217 0.00739247 0)
(0.0020579 0.016025 0)
(0.000846594 0.0266046 0)
(-0.000109039 0.0339201 0)
(-0.000179535 0.0246386 0)
(0.000270153 -0.0171197 0)
(0.00103312 -0.0257895 0)
(0.00117632 -0.0225694 0)
(0.000904942 -0.0159934 0)
(0.000467918 -0.00998962 0)
(5.81503e-05 -0.00577332 0)
(-0.000248094 -0.00330816 0)
(-0.000460461 -0.00213903 0)
(-0.000616565 -0.00178995 0)
(-0.00074546 -0.00189558 0)
(-0.000863606 -0.0021772 0)
(-0.000983275 -0.0023523 0)
(-0.00112465 -0.00202194 0)
(-0.00131947 -0.000581424 0)
(-0.00160278 0.00276358 0)
(-0.00194159 0.00872873 0)
(-0.00221766 0.0174854 0)
(-0.00218903 0.0275343 0)
(-0.00161235 0.0335893 0)
(-0.000363751 0.0234238 0)
(0.000136818 -0.0178552 0)
(-0.000289341 -0.025506 0)
(-0.00157805 -0.0211786 0)
(-0.00305692 -0.0142247 0)
(-0.00435123 -0.00840619 0)
(-0.00533042 -0.00457356 0)
(-0.006022 -0.0024556 0)
(-0.00650827 -0.00152415 0)
(-0.00686398 -0.00132042 0)
(-0.00713857 -0.00151433 0)
(-0.00736217 -0.00184746 0)
(-0.00755556 -0.00203611 0)
(-0.00773129 -0.00167784 0)
(-0.00787638 -0.000201435 0)
(-0.00791328 0.00307713 0)
(-0.00767493 0.00871268 0)
(-0.00692074 0.016681 0)
(-0.00541597 0.0254382 0)
(-0.00318963 0.0302207 0)
(-0.000576279 0.0205719 0)
(-0.000206382 -0.0167699 0)
(-0.00239238 -0.0220398 0)
(-0.00533271 -0.0168683 0)
(-0.00805094 -0.0103206 0)
(-0.0101091 -0.00538934 0)
(-0.011517 -0.00241941 0)
(-0.0124424 -0.000954852 0)
(-0.0130559 -0.000462427 0)
(-0.0134858 -0.000537632 0)
(-0.0138198 -0.000903609 0)
(-0.0141098 -0.00134276 0)
(-0.0143752 -0.00161382 0)
(-0.0145918 -0.00138523 0)
(-0.0146669 -0.000212647 0)
(-0.0143956 0.00241116 0)
(-0.0134985 0.00689916 0)
(-0.0116436 0.0131797 0)
(-0.00863684 0.0199909 0)
(-0.00477244 0.0236172 0)
(-0.0008 0.016016 0)
(-0.000855779 -0.0127427 0)
(-0.00540552 -0.0145437 0)
(-0.009922 -0.0095157 0)
(-0.0133241 -0.00460737 0)
(-0.015394 -0.00146885 0)
(-0.0164953 8.40027e-05 0)
(-0.0170433 0.0006027 0)
(-0.0173258 0.000542443 0)
(-0.0175201 0.0001888 0)
(-0.0177289 -0.000290067 0)
(-0.0180017 -0.000771375 0)
(-0.0183364 -0.00112107 0)
(-0.0186635 -0.00115317 0)
(-0.0188243 -0.000612477 0)
(-0.0185362 0.000812309 0)
(-0.0173961 0.00342348 0)
(-0.0149741 0.00723682 0)
(-0.0110436 0.0115378 0)
(-0.00603269 0.0140912 0)
(-0.00101447 0.0098737 0)
(-0.002046 -0.00436419 0)
(-0.00721613 -0.00376096 0)
(-0.0108585 -0.00169226 0)
(-0.0127266 -0.000254403 0)
(-0.0132949 0.00041141 0)
(-0.013206 0.000589452 0)
(-0.0128839 0.000533412 0)
(-0.0125653 0.000386883 0)
(-0.0123667 0.000212492 0)
(-0.0123362 3.20954e-05 0)
(-0.012486 -0.000144477 0)
(-0.0127975 -0.000304028 0)
(-0.0132124 -0.00042092 0)
(-0.0136067 -0.000447071 0)
(-0.013762 -0.000300446 0)
(-0.0133532 0.000147359 0)
(-0.0119526 0.00099926 0)
(-0.00922173 0.00220011 0)
(-0.00537454 0.00324517 0)
(-0.00127063 0.00272758 0)
)
;

boundaryField
{
    leftWall
    {
        type            fixedValue;
        value           uniform (0 0 0);
    }
    rightWall
    {
        type            fixedValue;
        value           uniform (0 0 0);
    }
    topWall
    {
        type            fixedValue;
        value           uniform (0 0 0);
    }
    bottomWall
    {
        type            fixedValue;
        value           uniform (0 0 0);
    }
    frontAndBackPlanes
    {
        type            empty;
    }
}


// ************************************************************************* //
