/*--------------------------------*- C++ -*----------------------------------*\
| =========                 |                                                 |
| \\      /  F ield         | OpenFOAM: The Open Source CFD Toolbox           |
|  \\    /   O peration     | Version:  2506                                  |
|   \\  /    A nd           | Website:  www.openfoam.com                      |
|    \\/     M anipulation  |                                                 |
\*---------------------------------------------------------------------------*/
FoamFile
{
    version     2.0;
    format      ascii;
    arch        "LSB;label=32;scalar=64";
    class       volVectorField;
    location    "145";
    object      U;
}
// * * * * * * * * * * * * * * * * * * * * * * * * * * * * * * * * * * * * * //

dimensions      [0 1 -1 0 0 0 0];

internalField   nonuniform List<vector> 
200
(
(0.000609183 -0.00144204 0)
(0.00291283 -0.00181663 0)
(0.00529106 -0.00131966 0)
(0.00713994 -0.000689624 0)
(0.00823936 -0.000208847 0)
(0.00874872 6.62702e-05 0)
(0.00890654 0.000165038 0)
(0.00892133 0.000139124 0)
(0.00894285 3.55441e-05 0)
(0.00907037 -0.000112492 0)
(0.0093662 -0.000289731 0)
(0.00986543 -0.000492776 0)
(0.0105827 -0.000718733 0)
(0.0115025 -0.000947482 0)
(0.0125379 -0.00111095 0)
(0.0134371 -0.00103957 0)
(0.0136618 -0.000392186 0)
(0.0123628 0.00131617 0)
(0.00871872 0.00411787 0)
(0.00259453 0.00551722 0)
(0.000602674 -0.00559776 0)
(0.00379984 -0.00854051 0)
(0.00723412 -0.00751408 0)
(0.0101385 -0.00522288 0)
(0.0121598 -0.00301638 0)
(0.0133839 -0.00142189 0)
(0.0140526 -0.000526781 0)
(0.0144111 -0.00022209 0)
(0.0146527 -0.000341562 0)
(0.0149046 -0.000730574 0)
(0.0152339 -0.00127102 0)
(0.015659 -0.00187066 0)
(0.0161481 -0.00242476 0)
(0.016602 -0.0027503 0)
(0.0168199 -0.00249283 0)
(0.0164469 -0.00102608 0)
(0.0149244 0.00252633 0)
(0.0116673 0.0087486 0)
(0.00669613 0.0160989 0)
(0.00112388 0.0158951 0)
(0.000547883 -0.00967761 0)
(0.00346287 -0.0152808 0)
(0.00652726 -0.0139469 0)
(0.00912771 -0.0102127 0)
(0.0109763 -0.00643821 0)
(0.0121533 -0.00357838 0)
(0.0128588 -0.00182882 0)
(0.0132826 -0.00103734 0)
(0.0135626 -0.000938294 0)
(0.0137819 -0.0012695 0)
(0.013977 -0.00180997 0)
(0.0141433 -0.00236475 0)
(0.0142321 -0.00270686 0)
(0.0141349 -0.00248598 0)
(0.0136619 -0.00112866 0)
(0.0125163 0.00218632 0)
(0.0104422 0.0082485 0)
(0.00731356 0.0170552 0)
(0.00356735 0.0253718 0)
(0.000397529 0.021356 0)
(0.000464539 -0.0132127 0)
(0.0027857 -0.0208425 0)
(0.0050291 -0.0190242 0)
(0.00679798 -0.0139967 0)
(0.00796425 -0.0089577 0)
(0.00866251 -0.00515304 0)
(0.00907277 -0.00279703 0)
(0.0093268 -0.00165453 0)
(0.00949651 -0.00136063 0)
(0.00961153 -0.00156919 0)
(0.00967652 -0.00199307 0)
(0.0096777 -0.00237286 0)
(0.0095767 -0.00239696 0)
(0.00929471 -0.00159845 0)
(0.00868724 0.000718449 0)
(0.00760721 0.00537216 0)
(0.00593315 0.0129929 0)
(0.00371875 0.022985 0)
(0.00142779 0.0309042 0)
(3.48365e-05 0.0237003 0)
(0.00036928 -0.0159644 0)
(0.00195191 -0.0246983 0)
(0.00317564 -0.0221217 0)
(0.00392113 -0.0159849 0)
(0.00425761 -0.0100887 0)
(0.00437392 -0.00578034 0)
(0.00441604 -0.00317396 0)
(0.00444725 -0.00190708 0)
(0.00447501 -0.00152754 0)
(0.00448681 -0.00164784 0)
(0.00446974 -0.00196365 0)
(0.00441144 -0.00219326 0)
(0.00428798 -0.00197561 0)
(0.00404821 -0.000766671 0)
(0.00359776 0.00219214 0)
(0.00286937 0.00767926 0)
(0.00184893 0.0161111 0)
(0.000702194 0.0263712 0)
(-0.000173159 0.033335 0)
(-0.000183619 0.0240422 0)
(0.000260331 -0.0178083 0)
(0.000944563 -0.0265886 0)
(0.000980598 -0.0230249 0)
(0.000611411 -0.0160758 0)
(0.000106778 -0.00981027 0)
(-0.000336684 -0.00545767 0)
(-0.00065234 -0.002944 0)
(-0.000861222 -0.00176721 0)
(-0.00100406 -0.00142909 0)
(-0.00111418 -0.00154865 0)
(-0.00121085 -0.00183748 0)
(-0.00130779 -0.00200865 0)
(-0.00142552 -0.00166637 0)
(-0.00159519 -0.000221827 0)
(-0.00184626 0.00308565 0)
(-0.00214159 0.00892921 0)
(-0.00236319 0.0174482 0)
(-0.00227293 0.027152 0)
(-0.00163957 0.032876 0)
(-0.000363059 0.0227785 0)
(0.000116463 -0.01844 0)
(-0.000408642 -0.0260809 0)
(-0.00180366 -0.0214094 0)
(-0.00336812 -0.0141504 0)
(-0.00470821 -0.00814958 0)
(-0.00569964 -0.00423691 0)
(-0.00638347 -0.00210115 0)
(-0.00685117 -0.00118202 0)
(-0.00718109 -0.00100265 0)
(-0.00742578 -0.00121778 0)
(-0.00761781 -0.00156184 0)
(-0.00777851 -0.00175033 0)
(-0.00791936 -0.00138812 0)
(-0.0080261 7.75593e-05 0)
(-0.00801682 0.00330135 0)
(-0.00772812 0.00880213 0)
(-0.00692776 0.016531 0)
(-0.00539125 0.0249622 0)
(-0.0031566 0.0294597 0)
(-0.00056614 0.0199372 0)
(-0.000225895 -0.0172323 0)
(-0.00251419 -0.0223982 0)
(-0.00554485 -0.0169187 0)
(-0.00831558 -0.0101457 0)
(-0.010385 -0.00510373 0)
(-0.0117753 -0.00210148 0)
(-0.0126671 -0.000647725 0)
(-0.0132389 -0.000183988 0)
(-0.013622 -0.000292052 0)
(-0.0139112 -0.000682563 0)
(-0.0141576 -0.00113408 0)
(-0.0143795 -0.00140831 0)
(-0.0145509 -0.00118297 0)
(-0.0145758 -3.0436e-05 0)
(-0.0142549 0.00253454 0)
(-0.0133219 0.006901 0)
(-0.0114541 0.0129791 0)
(-0.00846902 0.0195246 0)
(-0.00466294 0.0229319 0)
(-0.000777542 0.0154683 0)
(-0.000883852 -0.0130593 0)
(-0.00554306 -0.0147114 0)
(-0.0101169 -0.00945085 0)
(-0.0135166 -0.00440849 0)
(-0.0155394 -0.00122797 0)
(-0.0165751 0.000313771 0)
(-0.0170557 0.000801363 0)
(-0.0172721 0.000708266 0)
(-0.0174087 0.000328986 0)
(-0.017565 -0.000167625 0)
(-0.017788 -0.000658228 0)
(-0.0180746 -0.00101078 0)
(-0.0183538 -0.00104553 0)
(-0.0184683 -0.000517831 0)
(-0.0181417 0.00086941 0)
(-0.0169862 0.00340439 0)
(-0.0145871 0.00708882 0)
(-0.0107318 0.0112178 0)
(-0.00584545 0.0136273 0)
(-0.000978844 0.00950055 0)
(-0.0021013 -0.0044782 0)
(-0.00737126 -0.00379723 0)
(-0.0110192 -0.00165347 0)
(-0.0128336 -0.000186132 0)
(-0.0133281 0.000479224 0)
(-0.0131643 0.00064253 0)
(-0.012773 0.000572255 0)
(-0.012399 0.000415193 0)
(-0.0121558 0.000234822 0)
(-0.012088 5.08967e-05 0)
(-0.0122054 -0.000127309 0)
(-0.0124851 -0.000286212 0)
(-0.0128677 -0.000400984 0)
(-0.0132302 -0.000425603 0)
(-0.0133595 -0.00028147 0)
(-0.0129397 0.0001543 0)
(-0.0115592 0.000976533 0)
(-0.00889725 0.00212786 0)
(-0.00517018 0.00312115 0)
(-0.00121707 0.00261176 0)
)
;

boundaryField
{
    leftWall
    {
        type            fixedValue;
        value           uniform (0 0 0);
    }
    rightWall
    {
        type            fixedValue;
        value           uniform (0 0 0);
    }
    topWall
    {
        type            fixedValue;
        value           uniform (0 0 0);
    }
    bottomWall
    {
        type            fixedValue;
        value           uniform (0 0 0);
    }
    frontAndBackPlanes
    {
        type            empty;
    }
}


// ************************************************************************* //
