/*--------------------------------*- C++ -*----------------------------------*\
| =========                 |                                                 |
| \\      /  F ield         | OpenFOAM: The Open Source CFD Toolbox           |
|  \\    /   O peration     | Version:  2506                                  |
|   \\  /    A nd           | Website:  www.openfoam.com                      |
|    \\/     M anipulation  |                                                 |
\*---------------------------------------------------------------------------*/
FoamFile
{
    version     2.0;
    format      ascii;
    arch        "LSB;label=32;scalar=64";
    class       volScalarField;
    location    "38.8";
    object      p_rgh;
}
// * * * * * * * * * * * * * * * * * * * * * * * * * * * * * * * * * * * * * //

dimensions      [1 -1 -2 0 0 0 0];

internalField   nonuniform List<scalar> 
200
(
100000
100000
100000
100000
100000
100000
100000
100000
100000
100000
100000
100000
99999.9
99999.9
99999.8
99999.7
99999.5
99999.2
99998.9
99998.2
100000
100000
100000
100000
100000
100000
100000
100000
100000
100000
100000
100000
99999.9
99999.9
99999.8
99999.8
99999.6
99999.3
99998.6
99997
100000
100000
100000
100000
100000
100000
100000
100000
100000
99999.9
99999.9
99999.9
99999.9
99999.9
99999.9
99999.8
99999.7
99999.2
99998
99995.3
100000
100000
100000
100000
99999.9
99999.9
99999.8
99999.8
99999.8
99999.8
99999.8
99999.8
99999.8
99999.9
99999.9
99999.8
99999.6
99998.9
99997
99993.4
100000
100000
99999.9
99999.8
99999.6
99999.5
99999.5
99999.4
99999.4
99999.5
99999.5
99999.6
99999.7
99999.8
99999.8
99999.8
99999.4
99998.3
99995.8
99991.2
100000
100000
99999.7
99999.4
99999.1
99998.9
99998.9
99998.8
99998.9
99998.9
99999
99999.1
99999.3
99999.5
99999.6
99999.5
99998.9
99997.4
99994.3
99989.1
100001
100000
99999.4
99998.8
99998.3
99998.1
99997.9
99997.9
99997.9
99998
99998.1
99998.2
99998.4
99998.5
99998.6
99998.3
99997.6
99995.8
99992.4
99987
100001
99999.9
99998.8
99997.9
99997.2
99996.8
99996.6
99996.4
99996.3
99996.2
99996.2
99996.2
99996.2
99996.3
99996.3
99996
99995.2
99993.5
99990.3
99985
100001
99999.7
99998.2
99996.8
99995.8
99995.1
99994.6
99994.2
99993.8
99993.5
99993.3
99993
99992.9
99992.7
99992.6
99992.3
99991.7
99990.3
99987.6
99983.2
100002
99999.7
99997.9
99996.3
99995.1
99994
99993.2
99992.5
99991.9
99991.4
99990.9
99990.4
99989.9
99989.5
99989
99988.6
99987.9
99986.8
99984.9
99981.7
)
;

boundaryField
{
    leftWall
    {
        type            fixedFluxPressure;
        gradient        nonuniform List<scalar> 10(-0.0164771 0.0166744 0.269636 1.01303 2.63411 5.59966 10.4253 17.9336 27.9877 34.9224);
        value           nonuniform List<scalar> 10(100000 100000 100000 100000 100000 100001 100001 100001 100002 100002);
    }
    rightWall
    {
        type            fixedFluxPressure;
        gradient        nonuniform List<scalar> 10(-17.6875 -50.0006 -76.5351 -97.8946 -113.572 -123.868 -129.801 -127.36 -111.857 -84.8805);
        value           nonuniform List<scalar> 10(99997.8 99995.8 99993.4 99990.9 99988.4 99986 99983.8 99981.8 99980.4 99979.5);
    }
    topWall
    {
        type            fixedFluxPressure;
        gradient        uniform 0;
        value           nonuniform List<scalar> 
20
(
100000
100000
100000
100000
100000
100000
100000
100000
100000
100000
100000
100000
99999.9
99999.9
99999.8
99999.7
99999.5
99999.2
99998.9
99998.2
)
;
    }
    bottomWall
    {
        type            fixedFluxPressure;
        gradient        uniform 0;
        value           nonuniform List<scalar> 
20
(
100002
99999.7
99997.9
99996.3
99995.1
99994
99993.2
99992.5
99991.9
99991.4
99990.9
99990.4
99989.9
99989.5
99989
99988.6
99987.9
99986.8
99984.9
99981.7
)
;
    }
    frontAndBackPlanes
    {
        type            empty;
    }
}


// ************************************************************************* //
