/*--------------------------------*- C++ -*----------------------------------*\
| =========                 |                                                 |
| \\      /  F ield         | OpenFOAM: The Open Source CFD Toolbox           |
|  \\    /   O peration     | Version:  2506                                  |
|   \\  /    A nd           | Website:  www.openfoam.com                      |
|    \\/     M anipulation  |                                                 |
\*---------------------------------------------------------------------------*/
FoamFile
{
    version     2.0;
    format      ascii;
    arch        "LSB;label=32;scalar=64";
    class       surfaceScalarField;
    location    "38.8";
    object      phi;
}
// * * * * * * * * * * * * * * * * * * * * * * * * * * * * * * * * * * * * * //

dimensions      [1 0 -1 0 0 0 0];

oriented        oriented;

internalField   nonuniform List<scalar> 
370
(
-3.22341e-05
-6.29845e-05
0.000119403
-0.000151624
0.00033315
-0.000213723
0.000580981
-0.000247799
0.000836462
-0.000255443
0.00108346
-0.000246958
0.00131666
-0.000233159
0.00153915
-0.000222436
0.00175956
-0.000220372
0.00198952
-0.000229917
0.00224106
-0.000251489
0.00252369
-0.000282592
0.00283971
-0.000315971
0.00317676
-0.000337012
0.0034949
-0.000318101
0.00370195
-0.000207006
0.0036175
8.45023e-05
0.00301389
0.000603668
0.00165698
0.00135697
0.00165702
0.000127295
-0.000190265
0.000456411
-0.000480695
0.00090321
-0.000660447
0.00139509
-0.000739577
0.00188373
-0.00074397
0.00234226
-0.000705363
0.00276103
-0.000651789
0.00314216
-0.000603441
0.00349407
-0.000572148
0.00382635
-0.000562064
0.00414496
-0.000569969
0.00444681
-0.000584314
0.00471339
-0.000582428
0.00490208
-0.000525583
0.00493563
-0.000351542
0.00469648
3.22445e-05
0.00403667
0.000744422
0.00280735
0.00183311
0.00115133
0.00301312
0.00280843
0.000211192
-0.000401421
0.000671743
-0.000941132
0.00124496
-0.00123348
0.00183245
-0.00132682
0.00237777
-0.00128902
0.00285722
-0.00118453
0.00326822
-0.0010625
0.00361917
-0.000954101
0.00392184
-0.000874531
0.00418574
-0.000825692
0.00441351
-0.000797468
0.00459606
-0.000766602
0.00470703
-0.00069315
0.00469706
-0.000515375
0.00449147
-0.000145744
0.00399858
0.000525319
0.00315255
0.00159064
0.00196963
0.00301625
0.00070426
0.0042787
0.00351281
0.000258972
-0.000660317
0.000781458
-0.00146339
0.00137929
-0.00183094
0.0019384
-0.00188549
0.00240716
-0.00175728
0.00277608
-0.00155295
0.00305812
-0.00134404
0.0032741
-0.00116961
0.0034439
-0.00104388
0.00358142
-0.000962777
0.00369131
-0.00090694
0.00376567
-0.000840552
0.00378002
-0.000707115
0.0036899
-0.000424901
0.00343342
0.000111042
0.00294897
0.00101006
0.00220987
0.00233002
0.00128129
0.00394511
0.000402105
0.00515817
0.00391507
0.000276181
-0.000936368
0.000777433
-0.00196425
0.00128857
-0.00234148
0.0017011
-0.00229732
0.00198444
-0.00203989
0.00215369
-0.00172149
0.00224186
-0.00143155
0.00228272
-0.00120985
0.00230269
-0.00106326
0.00231813
-0.000977649
0.00233444
-0.000922694
0.0023449
-0.000850477
0.00232862
-0.000690322
0.00224887
-0.000344684
0.00205535
0.000304967
0.00170732
0.00135846
0.00119966
0.00283804
0.000611943
0.0045332
0.00013959
0.00563085
0.00405482
0.000242848
-0.00117902
0.000610165
-0.00233098
0.000902937
-0.00263341
0.00105051
-0.00244395
0.00106066
-0.00204911
0.000978628
-0.00163862
0.000853332
-0.00130549
0.000722675
-0.00107849
0.000610117
-0.000950033
0.000526286
-0.000893155
0.000471315
-0.000867051
0.000436121
-0.000814602
0.000402903
-0.000656429
0.000346826
-0.000287974
0.0002437
0.000408635
8.77754e-05
0.00151487
-8.90322e-05
0.00301533
-0.000206086
0.00465071
-0.000165259
0.00559038
0.00388971
0.000126503
-0.00130524
0.000203464
-0.00240716
0.000123813
-0.00255268
-0.000100881
-0.00221812
-0.000412694
-0.00173628
-0.00075024
-0.00130019
-0.00106942
-0.000985528
-0.00134692
-0.000800246
-0.00157529
-0.000720924
-0.00175659
-0.000711075
-0.00189753
-0.000725299
-0.00200571
-0.00070557
-0.00208556
-0.000575727
-0.00213223
-0.000240479
-0.00211832
0.000395446
-0.00199913
0.00139634
-0.00171262
0.00272942
-0.00120479
0.00414339
-0.000522287
0.00490825
0.00336757
-0.000119537
-0.00118534
-0.000514117
-0.00201159
-0.00109175
-0.0019738
-0.00173074
-0.00157791
-0.00233942
-0.00112655
-0.00287423
-0.000764492
-0.00332564
-0.000533317
-0.00370297
-0.000422135
-0.00402241
-0.000400681
-0.00429892
-0.000433742
-0.00454041
-0.000482946
-0.00474214
-0.000502962
-0.00487964
-0.000437355
-0.00490141
-0.000217854
-0.00472961
0.000224447
-0.0042722
0.000939647
-0.00345415
0.00191199
-0.00226798
0.00295773
-0.000904851
0.00354548
0.00246286
-0.000483732
-0.000701136
-0.00144565
-0.00104852
-0.00249448
-0.00092357
-0.00341685
-0.000654248
-0.00414258
-0.000399732
-0.004686
-0.000220159
-0.00509632
-0.000122211
-0.00542775
-8.99852e-05
-0.00572451
-0.00010323
-0.00601399
-0.000143578
-0.00630345
-0.00019281
-0.00657526
-0.00023047
-0.00677988
-0.000232049
-0.00682986
-0.000167177
-0.00661292
8.19896e-06
-0.00597898
0.000306337
-0.00482312
0.000756698
-0.00314568
0.00128075
-0.00123238
0.0016325
0.00123061
-0.000700587
-0.00174779
-0.00266979
-0.00332255
-0.00372102
-0.00394014
-0.0040615
-0.00415078
-0.0042534
-0.00439644
-0.00458875
-0.00481874
-0.00505033
-0.00521705
-0.0052084
-0.00490163
-0.00414454
-0.00286346
-0.00123072
)
;

boundaryField
{
    leftWall
    {
        type            calculated;
        value           nonuniform List<scalar> 10(0 0 -1.69407e-21 0 0 0 0 0 0 0);
    }
    rightWall
    {
        type            calculated;
        value           uniform 0;
    }
    topWall
    {
        type            calculated;
        value           uniform 0;
    }
    bottomWall
    {
        type            calculated;
        value           uniform 0;
    }
    frontAndBackPlanes
    {
        type            empty;
    }
}


// ************************************************************************* //
