/*--------------------------------*- C++ -*----------------------------------*\
| =========                 |                                                 |
| \\      /  F ield         | OpenFOAM: The Open Source CFD Toolbox           |
|  \\    /   O peration     | Version:  2506                                  |
|   \\  /    A nd           | Website:  www.openfoam.com                      |
|    \\/     M anipulation  |                                                 |
\*---------------------------------------------------------------------------*/
FoamFile
{
    version     2.0;
    format      ascii;
    arch        "LSB;label=32;scalar=64";
    class       volVectorField;
    location    "38.8";
    object      U;
}
// * * * * * * * * * * * * * * * * * * * * * * * * * * * * * * * * * * * * * //

dimensions      [0 1 -1 0 0 0 0];

internalField   nonuniform List<vector> 
200
(
(-0.000203913 -0.000151762 0)
(5.87153e-05 -0.000306392 0)
(0.000862794 -0.000387602 0)
(0.00188989 -0.000448446 0)
(0.00295501 -0.000462959 0)
(0.00400878 -0.000445398 0)
(0.00501078 -0.000423636 0)
(0.00595626 -0.000420204 0)
(0.00687124 -0.000450803 0)
(0.00780046 -0.000525685 0)
(0.00879613 -0.000650452 0)
(0.00990699 -0.00082506 0)
(0.0111639 -0.00103927 0)
(0.0125573 -0.0012613 0)
(0.013995 -0.00141448 0)
(0.0152106 -0.00132697 0)
(0.0156227 -0.000635583 0)
(0.0143047 0.00126062 0)
(0.0102635 0.00455208 0)
(0.00309463 0.00651989 0)
(8.99704e-05 -0.000937745 0)
(0.00108056 -0.00236717 0)
(0.00275025 -0.00332011 0)
(0.00476404 -0.00380957 0)
(0.00684594 -0.00390993 0)
(0.00883813 -0.00377425 0)
(0.0106703 -0.00355408 0)
(0.0123325 -0.0033671 0)
(0.0138516 -0.00328959 0)
(0.0152699 -0.00335761 0)
(0.0166247 -0.0035673 0)
(0.0179276 -0.0038682 0)
(0.0191403 -0.00414421 0)
(0.0201443 -0.00417561 0)
(0.0207023 -0.00357377 0)
(0.0204133 -0.00168334 0)
(0.0186528 0.00248255 0)
(0.0147231 0.00972344 0)
(0.00859891 0.0186129 0)
(0.00149394 0.0191699 0)
(0.000195248 -0.00237594 0)
(0.00170909 -0.00574656 0)
(0.00392643 -0.00774235 0)
(0.0064165 -0.00854147 0)
(0.00882122 -0.00849275 0)
(0.0109725 -0.00797424 0)
(0.0128267 -0.00729887 0)
(0.0144054 -0.00668155 0)
(0.0157572 -0.0062404 0)
(0.0169315 -0.00600742 0)
(0.0179582 -0.00593296 0)
(0.0188288 -0.00587607 0)
(0.0194749 -0.00557682 0)
(0.0197456 -0.0046109 0)
(0.0193848 -0.00233316 0)
(0.0180004 0.0021539 0)
(0.015234 0.00973825 0)
(0.0109168 0.02052 0)
(0.00558805 0.0310185 0)
(0.000729881 0.0269341 0)
(0.000257205 -0.00439677 0)
(0.00206582 -0.0100128 0)
(0.00447748 -0.0128525 0)
(0.00696319 -0.0135797 0)
(0.00914255 -0.0129803 0)
(0.010892 -0.0117504 0)
(0.0122351 -0.0103915 0)
(0.0132544 -0.00920368 0)
(0.014042 -0.00831911 0)
(0.0146725 -0.00773737 0)
(0.0151881 -0.00734115 0)
(0.0155856 -0.00688664 0)
(0.0158018 -0.00597087 0)
(0.0156982 -0.00399059 0)
(0.0150409 -0.000126945 0)
(0.0135329 0.00654116 0)
(0.0109733 0.0166622 0)
(0.00737574 0.0295644 0)
(0.00337334 0.0400726 0)
(0.000330121 0.0315354 0)
(0.000304564 -0.006703 0)
(0.00215361 -0.0144669 0)
(0.00433906 -0.0177151 0)
(0.00632456 -0.0178702 0)
(0.00779303 -0.0163199 0)
(0.00872145 -0.0141434 0)
(0.00922973 -0.0120245 0)
(0.00947042 -0.0103089 0)
(0.00957553 -0.00909945 0)
(0.00963697 -0.00832997 0)
(0.00970132 -0.00779732 0)
(0.00976734 -0.00715149 0)
(0.00978085 -0.00585671 0)
(0.00962607 -0.00315536 0)
(0.00909535 0.00189896 0)
(0.00799022 0.0101781 0)
(0.00618293 0.0220391 0)
(0.00378557 0.036073 0)
(0.00137225 0.0458677 0)
(1.60025e-05 0.0338271 0)
(0.000310992 -0.00897538 0)
(0.00182166 -0.0183322 0)
(0.00324634 -0.0213436 0)
(0.00418856 -0.0204418 0)
(0.00450553 -0.0177048 0)
(0.00432141 -0.0145838 0)
(0.00385094 -0.011876 0)
(0.00328678 -0.00989764 0)
(0.00276082 -0.00866313 0)
(0.0023435 -0.00800632 0)
(0.00205508 -0.00762679 0)
(0.00187492 -0.00707512 0)
(0.00174685 -0.00570552 0)
(0.00158482 -0.00264451 0)
(0.00126187 0.00312957 0)
(0.000716877 0.0124005 0)
(-6.94186e-06 0.0251905 0)
(-0.00068559 0.0394146 0)
(-0.000941609 0.0479714 0)
(-0.000310836 0.0338194 0)
(0.000231705 -0.0106558 0)
(0.000823613 -0.0204687 0)
(0.000815211 -0.0225113 0)
(0.000147826 -0.0202886 0)
(-0.00102191 -0.0164729 0)
(-0.00242041 -0.0127638 0)
(-0.00382108 -0.009919 0)
(-0.00508223 -0.00810716 0)
(-0.00614239 -0.00719292 0)
(-0.00699516 -0.00689544 0)
(-0.00766415 -0.00683378 0)
(-0.00818504 -0.0065008 0)
(-0.00858911 -0.00521481 0)
(-0.00887752 -0.00211117 0)
(-0.00898313 0.0037271 0)
(-0.00873352 0.012876 0)
(-0.00788797 0.0250608 0)
(-0.00620948 0.0380472 0)
(-0.00372819 0.0451465 0)
(-0.00071317 0.0310268 0)
(-1.30621e-05 -0.0108109 0)
(-0.00111945 -0.0193182 0)
(-0.00325107 -0.0198025 0)
(-0.00588986 -0.0165507 0)
(-0.00855253 -0.0124078 0)
(-0.0109625 -0.00887754 0)
(-0.0130221 -0.00648089 0)
(-0.0147418 -0.0051984 0)
(-0.0161836 -0.00478188 0)
(-0.0174195 -0.00490282 0)
(-0.018504 -0.00518097 0)
(-0.0194516 -0.00515365 0)
(-0.0202107 -0.00423851 0)
(-0.0206293 -0.00173935 0)
(-0.0203936 0.00304634 0)
(-0.0191176 0.0105633 0)
(-0.0164234 0.0205284 0)
(-0.0121371 0.031029 0)
(-0.00672275 0.0366241 0)
(-0.00115713 0.0250441 0)
(-0.000504592 -0.00834111 0)
(-0.00387247 -0.0135922 0)
(-0.00823627 -0.0127254 0)
(-0.0124862 -0.00956126 0)
(-0.0159713 -0.00627535 0)
(-0.0186019 -0.00381516 0)
(-0.0205511 -0.00238107 0)
(-0.0220589 -0.0018265 0)
(-0.0233419 -0.00189758 0)
(-0.0245559 -0.0023302 0)
(-0.0257784 -0.00285913 0)
(-0.0269932 -0.00318884 0)
(-0.0280672 -0.00296346 0)
(-0.028724 -0.0017598 0)
(-0.0285091 0.000884689 0)
(-0.0267919 0.00537014 0)
(-0.0230137 0.0116273 0)
(-0.0169399 0.0185016 0)
(-0.0092767 0.0225722 0)
(-0.00158779 0.0159307 0)
(-0.00118409 -0.00262705 0)
(-0.00510247 -0.00354983 0)
(-0.00930711 -0.00278597 0)
(-0.0126958 -0.00165463 0)
(-0.0148984 -0.000725933 0)
(-0.0161424 -0.000145752 0)
(-0.0167996 0.000117541 0)
(-0.0171966 0.000146482 0)
(-0.0175706 2.04819e-05 0)
(-0.0180744 -0.000198737 0)
(-0.0187851 -0.00046261 0)
(-0.0197015 -0.000722179 0)
(-0.0207297 -0.000913428 0)
(-0.0216539 -0.000943823 0)
(-0.0220941 -0.000670143 0)
(-0.0215342 0.000130298 0)
(-0.0193107 0.00161909 0)
(-0.0149218 0.00366953 0)
(-0.00874025 0.00542152 0)
(-0.00210276 0.00455421 0)
)
;

boundaryField
{
    leftWall
    {
        type            fixedValue;
        value           uniform (0 0 0);
    }
    rightWall
    {
        type            fixedValue;
        value           uniform (0 0 0);
    }
    topWall
    {
        type            fixedValue;
        value           uniform (0 0 0);
    }
    bottomWall
    {
        type            fixedValue;
        value           uniform (0 0 0);
    }
    frontAndBackPlanes
    {
        type            empty;
    }
}


// ************************************************************************* //
