/*--------------------------------*- C++ -*----------------------------------*\
| =========                 |                                                 |
| \\      /  F ield         | OpenFOAM: The Open Source CFD Toolbox           |
|  \\    /   O peration     | Version:  2506                                  |
|   \\  /    A nd           | Website:  www.openfoam.com                      |
|    \\/     M anipulation  |                                                 |
\*---------------------------------------------------------------------------*/
FoamFile
{
    version     2.0;
    format      ascii;
    arch        "LSB;label=32;scalar=64";
    class       volVectorField;
    location    "100";
    object      U;
}
// * * * * * * * * * * * * * * * * * * * * * * * * * * * * * * * * * * * * * //

dimensions      [0 1 -1 0 0 0 0];

internalField   nonuniform List<vector> 
200
(
(0.000343592 -0.000982087 0)
(0.00194801 -0.00127878 0)
(0.00374051 -0.000966957 0)
(0.00522246 -0.000554586 0)
(0.00618605 -0.000232053 0)
(0.00673772 -4.58515e-05 0)
(0.00704291 1.57012e-05 0)
(0.00725422 -1.60703e-05 0)
(0.00748971 -0.000110898 0)
(0.00783296 -0.000248655 0)
(0.00834095 -0.000420858 0)
(0.00905218 -0.000626708 0)
(0.00998838 -0.000863557 0)
(0.011141 -0.00110958 0)
(0.0124276 -0.00129343 0)
(0.0135928 -0.00124031 0)
(0.0140579 -0.000587498 0)
(0.0129169 0.00121349 0)
(0.00924945 0.004252 0)
(0.00278864 0.00591564 0)
(0.00045011 -0.00401759 0)
(0.00294334 -0.00637908 0)
(0.00573577 -0.00586932 0)
(0.00819726 -0.00435629 0)
(0.010021 -0.00282515 0)
(0.0112501 -0.0016991 0)
(0.012059 -0.00107646 0)
(0.0126334 -0.000900023 0)
(0.0131241 -0.00106105 0)
(0.0136351 -0.00145351 0)
(0.0142256 -0.00199219 0)
(0.0149139 -0.00260272 0)
(0.0156706 -0.00318518 0)
(0.0163975 -0.00354931 0)
(0.016887 -0.0033202 0)
(0.016768 -0.00183221 0)
(0.0154432 0.00188419 0)
(0.0122454 0.00854674 0)
(0.00712953 0.0166513 0)
(0.0012172 0.0169764 0)
(0.000458813 -0.00732472 0)
(0.00297015 -0.0120098 0)
(0.00570276 -0.011434 0)
(0.00810858 -0.00887063 0)
(0.00991161 -0.00612692 0)
(0.0111546 -0.00399367 0)
(0.0119921 -0.00267785 0)
(0.012579 -0.00210227 0)
(0.0130323 -0.00208556 0)
(0.0134255 -0.00243523 0)
(0.0137923 -0.00297905 0)
(0.0141296 -0.00354904 0)
(0.0143906 -0.00392456 0)
(0.0144668 -0.00374038 0)
(0.0141612 -0.00238023 0)
(0.0131506 0.00107247 0)
(0.0111156 0.00753862 0)
(0.00789869 0.0171025 0)
(0.00392765 0.02646 0)
(0.000458111 0.0228951 0)
(0.000424817 -0.0104848 0)
(0.00263246 -0.0171486 0)
(0.00486984 -0.0163064 0)
(0.0067217 -0.0126829 0)
(0.00802382 -0.00883206 0)
(0.00886944 -0.00582929 0)
(0.00941149 -0.00392617 0)
(0.00977229 -0.00299048 0)
(0.0100262 -0.00276099 0)
(0.0102095 -0.00297221 0)
(0.0103339 -0.00339018 0)
(0.010391 -0.00378312 0)
(0.0103458 -0.00384226 0)
(0.0101184 -0.00307359 0)
(0.00956599 -0.00071104 0)
(0.00847693 0.00421898 0)
(0.00672275 0.0124496 0)
(0.00432192 0.0234487 0)
(0.00175362 0.0325702 0)
(8.1805e-05 0.0256155 0)
(0.000370977 -0.0131976 0)
(0.00207332 -0.0211739 0)
(0.00354278 -0.0197642 0)
(0.00456903 -0.0151046 0)
(0.00515019 -0.010362 0)
(0.00544047 -0.00676097 0)
(0.00558198 -0.00450319 0)
(0.00565357 -0.00335822 0)
(0.00568327 -0.0029855 0)
(0.00567524 -0.00307443 0)
(0.00562766 -0.00336732 0)
(0.00553531 -0.00360487 0)
(0.00537827 -0.00342155 0)
(0.00510356 -0.00222936 0)
(0.00460252 0.000833383 0)
(0.00378465 0.00670172 0)
(0.00261391 0.0159082 0)
(0.00123568 0.0273562 0)
(6.44828e-05 0.0355834 0)
(-0.000170186 0.0262725 0)
(0.000288758 -0.0152525 0)
(0.00125158 -0.0236497 0)
(0.00168412 -0.0213713 0)
(0.00167607 -0.0158155 0)
(0.0014202 -0.010524 0)
(0.00110431 -0.00668569 0)
(0.000822573 -0.00435792 0)
(0.000590769 -0.00319433 0)
(0.000391776 -0.00280045 0)
(0.000207774 -0.00285757 0)
(2.92661e-05 -0.00311242 0)
(-0.000152231 -0.00329221 0)
(-0.000356363 -0.00298594 0)
(-0.000618818 -0.00154287 0)
(-0.000986534 0.00192463 0)
(-0.00143494 0.00824989 0)
(-0.00184654 0.0176784 0)
(-0.00197203 0.0286683 0)
(-0.00154054 0.0355923 0)
(-0.000365872 0.0251963 0)
(0.00015721 -0.0162616 0)
(-1.16392e-05 -0.0239494 0)
(-0.000980033 -0.0205817 0)
(-0.00222407 -0.0144772 0)
(-0.00339527 -0.00916124 0)
(-0.00434371 -0.0055405 0)
(-0.00506456 -0.00345621 0)
(-0.00561319 -0.00247502 0)
(-0.00604747 -0.00219906 0)
(-0.0064075 -0.0023325 0)
(-0.00671863 -0.00263404 0)
(-0.00700102 -0.00282121 0)
(-0.00727098 -0.00247021 0)
(-0.00752186 -0.00095687 0)
(-0.00768365 0.00248936 0)
(-0.00757459 0.00851524 0)
(-0.00693336 0.0171536 0)
(-0.0055 0.0267997 0)
(-0.00328437 0.0323369 0)
(-0.000604057 0.0223134 0)
(-0.000159228 -0.0155063 0)
(-0.00207273 -0.0210607 0)
(-0.00476622 -0.016756 0)
(-0.00734574 -0.0108421 0)
(-0.00937978 -0.00621498 0)
(-0.0108423 -0.00332244 0)
(-0.011866 -0.00181094 0)
(-0.0125993 -0.00122713 0)
(-0.0131557 -0.00121174 0)
(-0.0136152 -0.00151052 0)
(-0.0140285 -0.00191555 0)
(-0.0144165 -0.00217733 0)
(-0.0147591 -0.00193786 0)
(-0.0149654 -0.000705322 0)
(-0.0148229 0.00209082 0)
(-0.0140176 0.00692343 0)
(-0.0121879 0.0137651 0)
(-0.00910952 0.0212994 0)
(-0.00507572 0.0255094 0)
(-0.000861516 0.0175162 0)
(-0.000779761 -0.0118643 0)
(-0.00503193 -0.0140789 0)
(-0.00939539 -0.00970691 0)
(-0.0128127 -0.00517458 0)
(-0.0150193 -0.00214718 0)
(-0.0163017 -0.000555466 0)
(-0.0170337 5.51408e-05 0)
(-0.0174967 9.15383e-05 0)
(-0.0178527 -0.000184052 0)
(-0.0182072 -0.0006131 0)
(-0.0186194 -0.00107112 0)
(-0.0190887 -0.00141517 0)
(-0.0195483 -0.00144041 0)
(-0.0198345 -0.000862293 0)
(-0.0196485 0.000667391 0)
(-0.0185442 0.00349001 0)
(-0.0160503 0.00765767 0)
(-0.0119048 0.0124261 0)
(-0.00654688 0.015366 0)
(-0.00111205 0.0108944 0)
(-0.0018926 -0.00404541 0)
(-0.00678425 -0.0036575 0)
(-0.0104106 -0.00179965 0)
(-0.012432 -0.000441986 0)
(-0.0132126 0.000230893 0)
(-0.0133433 0.000454044 0)
(-0.0132189 0.000435558 0)
(-0.0130525 0.000317897 0)
(-0.0129755 0.000163426 0)
(-0.0130452 -8.9625e-06 0)
(-0.0132791 -0.000184602 0)
(-0.0136729 -0.000348915 0)
(-0.0141731 -0.000473732 0)
(-0.0146523 -0.000505451 0)
(-0.0148758 -0.000352697 0)
(-0.0144935 0.000128371 0)
(-0.0130345 0.00106234 0)
(-0.0101113 0.00239923 0)
(-0.00593336 0.00358543 0)
(-0.00141688 0.00304451 0)
)
;

boundaryField
{
    leftWall
    {
        type            fixedValue;
        value           uniform (0 0 0);
    }
    rightWall
    {
        type            fixedValue;
        value           uniform (0 0 0);
    }
    topWall
    {
        type            fixedValue;
        value           uniform (0 0 0);
    }
    bottomWall
    {
        type            fixedValue;
        value           uniform (0 0 0);
    }
    frontAndBackPlanes
    {
        type            empty;
    }
}


// ************************************************************************* //
