/*--------------------------------*- C++ -*----------------------------------*\
| =========                 |                                                 |
| \\      /  F ield         | OpenFOAM: The Open Source CFD Toolbox           |
|  \\    /   O peration     | Version:  2506                                  |
|   \\  /    A nd           | Website:  www.openfoam.com                      |
|    \\/     M anipulation  |                                                 |
\*---------------------------------------------------------------------------*/
FoamFile
{
    version     2.0;
    format      ascii;
    arch        "LSB;label=32;scalar=64";
    class       volVectorField;
    location    "19.4";
    object      U;
}
// * * * * * * * * * * * * * * * * * * * * * * * * * * * * * * * * * * * * * //

dimensions      [0 1 -1 0 0 0 0];

internalField   nonuniform List<vector> 
200
(
(-0.000253057 -8.95964e-05 0)
(-0.000235743 -0.000176207 0)
(0.000220553 -0.000256822 0)
(0.000945454 -0.000378173 0)
(0.0018842 -0.000494354 0)
(0.00303108 -0.000591012 0)
(0.00434179 -0.000667368 0)
(0.00576886 -0.000725555 0)
(0.00726759 -0.000770476 0)
(0.00879797 -0.000810061 0)
(0.0103267 -0.000854635 0)
(0.0118284 -0.000914844 0)
(0.0132811 -0.000996987 0)
(0.0146517 -0.00109218 0)
(0.0158551 -0.00115011 0)
(0.0166637 -0.00101853 0)
(0.01661 -0.000337315 0)
(0.014858 0.00147826 0)
(0.0104874 0.00466321 0)
(0.00312062 0.00656723 0)
(-1.96646e-06 -0.000370551 0)
(0.00037925 -0.00121084 0)
(0.00129691 -0.00212115 0)
(0.00267791 -0.00302377 0)
(0.0044624 -0.00382098 0)
(0.00657882 -0.0044707 0)
(0.00894193 -0.00495494 0)
(0.011458 -0.00526891 0)
(0.0140277 -0.00541723 0)
(0.0165481 -0.00541164 0)
(0.0189129 -0.005266 0)
(0.0210086 -0.00498409 0)
(0.0227049 -0.00453544 0)
(0.0238358 -0.00381127 0)
(0.0241693 -0.00254628 0)
(0.0233559 -0.000192721 0)
(0.0208539 0.00413278 0)
(0.0161048 0.0111912 0)
(0.00923925 0.0196637 0)
(0.00158291 0.019686 0)
(5.5616e-05 -0.000874247 0)
(0.00066612 -0.00283181 0)
(0.00183793 -0.00481224 0)
(0.00351241 -0.00664231 0)
(0.00559712 -0.00820906 0)
(0.00800158 -0.00944522 0)
(0.0106269 -0.0103104 0)
(0.0133611 -0.0107797 0)
(0.0160793 -0.0108394 0)
(0.0186467 -0.0104851 0)
(0.020922 -0.00971289 0)
(0.0227571 -0.00849551 0)
(0.0239882 -0.00674128 0)
(0.0244206 -0.0042323 0)
(0.0237987 -0.000543187 0)
(0.021794 0.00500397 0)
(0.0181465 0.013099 0)
(0.0128096 0.0237775 0)
(0.00649485 0.0336303 0)
(0.000856682 0.0283163 0)
(6.39072e-05 -0.00160216 0)
(0.000719995 -0.00479514 0)
(0.00190634 -0.00781785 0)
(0.00355261 -0.0105203 0)
(0.00556312 -0.0127851 0)
(0.0078489 -0.0145257 0)
(0.0103114 -0.0156742 0)
(0.0128329 -0.0161741 0)
(0.0152772 -0.0159845 0)
(0.0174979 -0.0150857 0)
(0.0193498 -0.0134684 0)
(0.0206951 -0.0110955 0)
(0.0213989 -0.0078407 0)
(0.021312 -0.00341544 0)
(0.0202108 0.00268664 0)
(0.0179175 0.0110526 0)
(0.0143155 0.0220883 0)
(0.00954837 0.0350095 0)
(0.00441644 0.0446432 0)
(0.000472997 0.0340043 0)
(5.97657e-05 -0.0022997 0)
(0.000604125 -0.00659865 0)
(0.00156329 -0.0105251 0)
(0.00288231 -0.0139716 0)
(0.00449089 -0.0168254 0)
(0.00632146 -0.0189799 0)
(0.00828933 -0.0203281 0)
(0.0102818 -0.0207672 0)
(0.012162 -0.0202244 0)
(0.0137881 -0.0186799 0)
(0.0150358 -0.0161537 0)
(0.0158112 -0.0126408 0)
(0.0160451 -0.0080149 0)
(0.0156676 -0.00194134 0)
(0.014495 0.00612784 0)
(0.0124713 0.0166696 0)
(0.0095633 0.0297644 0)
(0.005982 0.0438893 0)
(0.00242781 0.0525685 0)
(0.000159076 0.0374609 0)
(3.37856e-05 -0.00278776 0)
(0.000291018 -0.00783468 0)
(0.000752021 -0.0123803 0)
(0.00140521 -0.0163603 0)
(0.00223348 -0.0196601 0)
(0.0032084 -0.0221393 0)
(0.00427266 -0.0236303 0)
(0.00533225 -0.0239661 0)
(0.0062686 -0.0230442 0)
(0.00697025 -0.0208754 0)
(0.00736557 -0.0175573 0)
(0.00743406 -0.0131588 0)
(0.00719137 -0.00756862 0)
(0.00664318 -0.000388871 0)
(0.00566969 0.00897205 0)
(0.00435274 0.02087 0)
(0.00275012 0.0350724 0)
(0.00110476 0.0494479 0)
(-0.000119672 0.05672 0)
(-0.00022381 0.0385121 0)
(-2.21153e-05 -0.00283692 0)
(-0.000249789 -0.00799897 0)
(-0.00058712 -0.0127025 0)
(-0.000985286 -0.0168783 0)
(-0.00139341 -0.0203861 0)
(-0.00179084 -0.0230329 0)
(-0.00219223 -0.0245724 0)
(-0.00264603 -0.0247662 0)
(-0.00321191 -0.0235013 0)
(-0.00392159 -0.0208624 0)
(-0.00474987 -0.0170637 0)
(-0.00561842 -0.0122582 0)
(-0.00642542 -0.00633604 0)
(-0.00710489 0.00114519 0)
(-0.00751438 0.0107295 0)
(-0.00750247 0.0226472 0)
(-0.00690743 0.0364241 0)
(-0.00555214 0.0496591 0)
(-0.00343441 0.0552587 0)
(-0.000695404 0.0364203 0)
(-0.000103278 -0.0022104 0)
(-0.000919929 -0.00658335 0)
(-0.00224624 -0.0107788 0)
(-0.00399461 -0.0146151 0)
(-0.0060579 -0.0178968 0)
(-0.00835647 -0.020378 0)
(-0.0108267 -0.0217489 0)
(-0.0134109 -0.0217371 0)
(-0.0160367 -0.0202722 0)
(-0.0185952 -0.0175489 0)
(-0.0209351 -0.0138947 0)
(-0.0228781 -0.00952289 0)
(-0.0242346 -0.00434491 0)
(-0.0247817 0.00203059 0)
(-0.0241733 0.0100858 0)
(-0.0222016 0.0200816 0)
(-0.018648 0.0315703 0)
(-0.0135039 0.0424015 0)
(-0.00736448 0.0465806 0)
(-0.00126784 0.0303394 0)
(-0.000122346 -0.00098412 0)
(-0.00120564 -0.00365512 0)
(-0.00321407 -0.00652837 0)
(-0.00608591 -0.00927379 0)
(-0.00969936 -0.0116779 0)
(-0.013906 -0.0135077 0)
(-0.0185107 -0.0144703 0)
(-0.0232676 -0.0143295 0)
(-0.0278978 -0.0130794 0)
(-0.0321238 -0.0109816 0)
(-0.0356989 -0.00840257 0)
(-0.0384125 -0.00557908 0)
(-0.040059 -0.00247108 0)
(-0.0403523 0.00123942 0)
(-0.0388744 0.00603612 0)
(-0.0353178 0.0122798 0)
(-0.0293232 0.0197421 0)
(-0.0209182 0.027001 0)
(-0.011132 0.030121 0)
(-0.00185762 0.0200075 0)
(1.52219e-05 -1.288e-05 0)
(-0.000526526 -0.000536355 0)
(-0.00196639 -0.00119891 0)
(-0.00430821 -0.00185547 0)
(-0.00748449 -0.00244558 0)
(-0.0113592 -0.00290568 0)
(-0.0157017 -0.00314148 0)
(-0.0201781 -0.00307557 0)
(-0.0244097 -0.00272134 0)
(-0.0280768 -0.00219643 0)
(-0.0309939 -0.00165413 0)
(-0.0331037 -0.00119379 0)
(-0.0343939 -0.000807829 0)
(-0.0347789 -0.000365719 0)
(-0.0340189 0.000385463 0)
(-0.0316478 0.00171265 0)
(-0.0270929 0.00370774 0)
(-0.0200623 0.00609349 0)
(-0.0113126 0.00775196 0)
(-0.00266862 0.00592316 0)
)
;

boundaryField
{
    leftWall
    {
        type            fixedValue;
        value           uniform (0 0 0);
    }
    rightWall
    {
        type            fixedValue;
        value           uniform (0 0 0);
    }
    topWall
    {
        type            fixedValue;
        value           uniform (0 0 0);
    }
    bottomWall
    {
        type            fixedValue;
        value           uniform (0 0 0);
    }
    frontAndBackPlanes
    {
        type            empty;
    }
}


// ************************************************************************* //
