/*--------------------------------*- C++ -*----------------------------------*\
| =========                 |                                                 |
| \\      /  F ield         | OpenFOAM: The Open Source CFD Toolbox           |
|  \\    /   O peration     | Version:  2506                                  |
|   \\  /    A nd           | Website:  www.openfoam.com                      |
|    \\/     M anipulation  |                                                 |
\*---------------------------------------------------------------------------*/
FoamFile
{
    version     2.0;
    format      ascii;
    arch        "LSB;label=32;scalar=64";
    class       volVectorField;
    location    "145.8";
    object      U;
}
// * * * * * * * * * * * * * * * * * * * * * * * * * * * * * * * * * * * * * //

dimensions      [0 1 -1 0 0 0 0];

internalField   nonuniform List<vector> 
200
(
(0.000612683 -0.00144813 0)
(0.00292558 -0.00182377 0)
(0.00531161 -0.00132441 0)
(0.00716548 -0.000691536 0)
(0.0082669 -0.000208698 0)
(0.00877597 6.75926e-05 0)
(0.00893213 0.000166892 0)
(0.00894471 0.000141109 0)
(0.00896371 3.74043e-05 0)
(0.00908858 -0.000110766 0)
(0.00938172 -0.000288044 0)
(0.00987821 -0.000491011 0)
(0.0105926 -0.000716774 0)
(0.0115092 -0.000945229 0)
(0.0125411 -0.00110833 0)
(0.0134364 -0.00103656 0)
(0.0136574 -0.000389146 0)
(0.0123557 0.00131795 0)
(0.00871161 0.00411624 0)
(0.00259187 0.00551174 0)
(0.000604699 -0.00561868 0)
(0.00381115 -0.00856916 0)
(0.00725393 -0.00753611 0)
(0.0101642 -0.00523491 0)
(0.0121883 -0.00301972 0)
(0.0134126 -0.00141915 0)
(0.0140797 -0.000520436 0)
(0.0144356 -0.000213951 0)
(0.0146741 -0.000332751 0)
(0.0149227 -0.000721559 0)
(0.0152487 -0.00126185 0)
(0.0156705 -0.00186114 0)
(0.0161562 -0.00241463 0)
(0.0166065 -0.00273935 0)
(0.0168207 -0.00248109 0)
(0.0164441 -0.00101412 0)
(0.0149187 0.00253644 0)
(0.0116603 0.00875279 0)
(0.00669071 0.0160924 0)
(0.00112269 0.0158807 0)
(0.00054906 -0.00970872 0)
(0.00346932 -0.015324 0)
(0.00653804 -0.0139803 0)
(0.00914104 -0.0102311 0)
(0.0109903 -0.00644333 0)
(0.0121665 -0.00357412 0)
(0.0128703 -0.00181891 0)
(0.013292 -0.0010245 0)
(0.0135698 -0.000924197 0)
(0.013787 -0.00125494 0)
(0.0139798 -0.00179513 0)
(0.014144 -0.00234946 0)
(0.0142305 -0.00269082 0)
(0.0141312 -0.00246904 0)
(0.013656 -0.00111123 0)
(0.0125087 0.00220249 0)
(0.010434 0.00825986 0)
(0.00730638 0.0170566 0)
(0.00356294 0.0253587 0)
(0.000396799 0.0213358 0)
(0.000465041 -0.0132486 0)
(0.00278758 -0.0208911 0)
(0.00503097 -0.0190602 0)
(0.00679869 -0.0140146 0)
(0.00796313 -0.00896032 0)
(0.00865943 -0.00514534 0)
(0.00906797 -0.00278344 0)
(0.00932059 -0.00163814 0)
(0.00948919 -0.00134323 0)
(0.00960331 -0.00155156 0)
(0.00966752 -0.00197532 0)
(0.009668 -0.00235471 0)
(0.00956633 -0.00237807 0)
(0.00928371 -0.00157874 0)
(0.00867562 0.00073811 0)
(0.00759583 0.0053888 0)
(0.00592292 0.0130021 0)
(0.00371102 0.0229811 0)
(0.00142367 0.0308838 0)
(3.42551e-05 0.0236755 0)
(0.000369219 -0.0160006 0)
(0.00195011 -0.0247445 0)
(0.00317055 -0.0221529 0)
(0.0039123 -0.015997 0)
(0.00424555 -0.010086 0)
(0.00435954 -0.0057686 0)
(0.00440033 -0.00315767 0)
(0.00443098 -0.00188907 0)
(0.00445864 -0.00150927 0)
(0.00447063 -0.00162983 0)
(0.00445392 -0.00194579 0)
(0.00439605 -0.00217514 0)
(0.00427307 -0.00195682 0)
(0.00403381 -0.000747323 0)
(0.00358413 0.00221058 0)
(0.00285706 0.00769329 0)
(0.00183877 0.0161156 0)
(0.000695186 0.0263603 0)
(-0.00017627 0.0333071 0)
(-0.000183821 0.0240136 0)
(0.000259869 -0.0178415 0)
(0.000940287 -0.0266269 0)
(0.00097113 -0.0230467 0)
(0.000597259 -0.0160797 0)
(8.95939e-05 -0.00980145 0)
(-0.000355495 -0.00544282 0)
(-0.000671896 -0.00292666 0)
(-0.000880649 -0.00174945 0)
(-0.00102288 -0.00141182 0)
(-0.00113213 -0.00153208 0)
(-0.00122778 -0.0018213 0)
(-0.00132363 -0.00199233 0)
(-0.0014402 -0.00164955 0)
(-0.00160869 -0.000204844 0)
(-0.00185822 0.00310099 0)
(-0.0021514 0.00893887 0)
(-0.00237032 0.0174465 0)
(-0.00227703 0.0271338 0)
(-0.0016409 0.0328418 0)
(-0.000363031 0.0227475 0)
(0.000115561 -0.018468 0)
(-0.000414312 -0.0261084 0)
(-0.00181452 -0.0214206 0)
(-0.00338305 -0.0141469 0)
(-0.00472524 -0.00813728 0)
(-0.00571728 -0.00422081 0)
(-0.00640088 -0.00208408 0)
(-0.00686777 -0.0011655 0)
(-0.00719654 -0.000987262 0)
(-0.00743989 -0.00120346 0)
(-0.00763051 -0.00154805 0)
(-0.00778982 -0.00173649 0)
(-0.00792912 -0.00137398 0)
(-0.00803361 9.13341e-05 0)
(-0.00802149 0.00331235 0)
(-0.0077305 0.00880659 0)
(-0.00692804 0.016524 0)
(-0.00539003 0.0249394 0)
(-0.00315499 0.0294232 0)
(-0.000565645 0.0199067 0)
(-0.000226833 -0.0172545 0)
(-0.00252007 -0.0224154 0)
(-0.0055551 -0.0169212 0)
(-0.00832837 -0.0101374 0)
(-0.0103984 -0.00509002 0)
(-0.0117877 -0.00208609 0)
(-0.0126779 -0.000632707 0)
(-0.0132475 -0.000170432 0)
(-0.0136285 -0.000280115 0)
(-0.0139155 -0.000671856 0)
(-0.0141597 -0.00112395 0)
(-0.0143795 -0.00139827 0)
(-0.0145485 -0.00117297 0)
(-0.0145714 -2.12733e-05 0)
(-0.0142486 0.00254076 0)
(-0.0133137 0.00690129 0)
(-0.0114451 0.0129696 0)
(-0.00846102 0.0195023 0)
(-0.0046577 0.022899 0)
(-0.000776468 0.015442 0)
(-0.000885202 -0.0130744 0)
(-0.00554966 -0.0147194 0)
(-0.0101262 -0.00944774 0)
(-0.0135258 -0.00439898 0)
(-0.0155463 -0.00121642 0)
(-0.0165789 0.000324821 0)
(-0.0170562 0.000810943 0)
(-0.0172696 0.000716297 0)
(-0.0174032 0.000335744 0)
(-0.0175569 -0.000161691 0)
(-0.0177775 -0.00065277 0)
(-0.0180619 -0.00100553 0)
(-0.0183388 -0.00104054 0)
(-0.0184512 -0.000513574 0)
(-0.0181228 0.000872023 0)
(-0.0169665 0.00340343 0)
(-0.0145685 0.0070817 0)
(-0.0107168 0.0112024 0)
(-0.00583644 0.013605 0)
(-0.000977129 0.00948261 0)
(-0.00210394 -0.00448363 0)
(-0.00737865 -0.00379894 0)
(-0.0110269 -0.00165161 0)
(-0.0128386 -0.000182864 0)
(-0.0133297 0.000482474 0)
(-0.0131623 0.000645056 0)
(-0.0127678 0.000574084 0)
(-0.0123911 0.000416586 0)
(-0.0121458 0.000235962 0)
(-0.0120761 5.19061e-05 0)
(-0.0121919 -0.000126395 0)
(-0.0124701 -0.00028529 0)
(-0.0128512 -0.000399985 0)
(-0.0132121 -0.000424548 0)
(-0.0133402 -0.000280531 0)
(-0.0129199 0.000154654 0)
(-0.0115403 0.000975453 0)
(-0.00888165 0.00212439 0)
(-0.00516035 0.00311519 0)
(-0.0012145 0.00260619 0)
)
;

boundaryField
{
    leftWall
    {
        type            fixedValue;
        value           uniform (0 0 0);
    }
    rightWall
    {
        type            fixedValue;
        value           uniform (0 0 0);
    }
    topWall
    {
        type            fixedValue;
        value           uniform (0 0 0);
    }
    bottomWall
    {
        type            fixedValue;
        value           uniform (0 0 0);
    }
    frontAndBackPlanes
    {
        type            empty;
    }
}


// ************************************************************************* //
