/*--------------------------------*- C++ -*----------------------------------*\
| =========                 |                                                 |
| \\      /  F ield         | OpenFOAM: The Open Source CFD Toolbox           |
|  \\    /   O peration     | Version:  2506                                  |
|   \\  /    A nd           | Website:  www.openfoam.com                      |
|    \\/     M anipulation  |                                                 |
\*---------------------------------------------------------------------------*/
FoamFile
{
    version     2.0;
    format      ascii;
    arch        "LSB;label=32;scalar=64";
    class       volScalarField;
    location    "52.8";
    object      T;
}
// * * * * * * * * * * * * * * * * * * * * * * * * * * * * * * * * * * * * * //

dimensions      [0 0 0 1 0 0 0];

internalField   nonuniform List<scalar> 
200
(
273.151
273.153
273.154
273.155
273.156
273.156
273.156
273.156
273.156
273.156
273.157
273.157
273.157
273.159
273.161
273.169
273.192
273.255
273.419
273.8
273.153
273.159
273.164
273.168
273.17
273.171
273.171
273.171
273.171
273.171
273.172
273.172
273.172
273.171
273.172
273.176
273.196
273.258
273.433
273.825
273.157
273.172
273.183
273.191
273.196
273.198
273.199
273.199
273.199
273.198
273.197
273.196
273.194
273.191
273.189
273.191
273.211
273.281
273.467
273.856
273.164
273.19
273.211
273.225
273.233
273.236
273.237
273.236
273.235
273.233
273.231
273.228
273.223
273.216
273.21
273.21
273.233
273.31
273.507
273.886
273.172
273.213
273.245
273.266
273.278
273.282
273.283
273.281
273.278
273.276
273.272
273.266
273.258
273.246
273.235
273.235
273.262
273.349
273.553
273.915
273.181
273.239
273.285
273.314
273.328
273.334
273.334
273.332
273.33
273.327
273.323
273.316
273.305
273.29
273.276
273.278
273.314
273.411
273.612
273.941
273.192
273.27
273.329
273.366
273.384
273.391
273.393
273.394
273.395
273.395
273.393
273.388
273.379
273.367
273.36
273.368
273.406
273.499
273.679
273.966
273.205
273.305
273.377
273.421
273.444
273.457
273.466
273.474
273.482
273.488
273.493
273.494
273.494
273.491
273.492
273.502
273.536
273.613
273.76
273.995
273.22
273.339
273.422
273.475
273.508
273.532
273.551
273.568
273.584
273.599
273.612
273.624
273.635
273.644
273.654
273.666
273.695
273.752
273.858
274.031
273.23
273.358
273.446
273.504
273.545
273.576
273.602
273.626
273.648
273.671
273.693
273.715
273.737
273.759
273.782
273.805
273.836
273.882
273.955
274.069
)
;

boundaryField
{
    leftWall
    {
        type            fixedValue;
        value           uniform 273.15;
    }
    rightWall
    {
        type            customNeumannDirichletCoupledBoundary;
        refValue        nonuniform List<scalar> 10(274.126 274.127 274.129 274.131 274.133 274.135 274.136 274.138 274.14 274.142);
        refGradient     uniform 0;
        valueFraction   uniform 1;
        source          uniform 0;
        value           nonuniform List<scalar> 10(274.126 274.127 274.129 274.131 274.133 274.135 274.136 274.138 274.14 274.142);
        kappaMethod     fluidThermo;
    }
    topWall
    {
        type            zeroGradient;
    }
    bottomWall
    {
        type            zeroGradient;
    }
    frontAndBackPlanes
    {
        type            empty;
    }
}


// ************************************************************************* //
