/*--------------------------------*- C++ -*----------------------------------*\
| =========                 |                                                 |
| \\      /  F ield         | OpenFOAM: The Open Source CFD Toolbox           |
|  \\    /   O peration     | Version:  2506                                  |
|   \\  /    A nd           | Website:  www.openfoam.com                      |
|    \\/     M anipulation  |                                                 |
\*---------------------------------------------------------------------------*/
FoamFile
{
    version     2.0;
    format      ascii;
    arch        "LSB;label=32;scalar=64";
    class       surfaceScalarField;
    location    "85.2";
    object      phi;
}
// * * * * * * * * * * * * * * * * * * * * * * * * * * * * * * * * * * * * * //

dimensions      [1 0 -1 0 0 0 0];

oriented        oriented;

internalField   nonuniform List<scalar> 
370
(
0.000184192
-0.000237792
0.000557968
-0.000373694
0.000904438
-0.00034635
0.0011667
-0.000262119
0.00134356
-0.000176693
0.00145868
-0.000114945
0.00154187
-8.30117e-05
0.00162
-7.79388e-05
0.00171413
-9.39337e-05
0.00183983
-0.0001255
0.00200851
-0.000168463
0.00222783
-0.000219112
0.00249974
-0.000271684
0.00281352
-0.000313554
0.00313141
-0.000317658
0.00336271
-0.000231067
0.00331984
4.311e-05
0.00278408
0.000535992
0.00152839
0.0012559
0.00152851
0.000330281
-0.00056803
0.000910291
-0.000953584
0.00149136
-0.000927249
0.00196855
-0.000739112
0.00232348
-0.00053141
0.00257799
-0.000369233
0.00276691
-0.000271704
0.00292393
-0.000234723
0.00307549
-0.000245265
0.0032392
-0.000288976
0.00342368
-0.000352704
0.0036277
-0.000422881
0.00383632
-0.00048006
0.00401271
-0.000489679
0.00408531
-0.000390002
0.00393789
-8.33828e-05
0.00342843
0.000552839
0.00239812
0.00156655
0.000978822
0.00267543
0.00250745
0.00035866
-0.000926631
0.000961625
-0.00155639
0.00155673
-0.00152212
0.00204349
-0.00122561
0.00240641
-0.000894045
0.00266699
-0.000629534
0.0028566
-0.000461021
0.00300346
-0.0003813
0.003128
-0.000369516
0.003242
-0.000402691
0.00334887
-0.000459287
0.00344278
-0.000516498
0.00350523
-0.000542214
0.0034989
-0.000483048
0.00336197
-0.000252762
0.00301074
0.000268146
0.00237924
0.00118465
0.0014737
0.00247238
0.0005079
0.00364147
0.00301546
0.000338562
-0.00126512
0.000876754
-0.00209439
0.00137648
-0.00202157
0.00176
-0.00160882
0.00202827
-0.00116198
0.00220921
-0.000810134
0.00233225
-0.000583731
0.00241915
-0.000467871
0.00248291
-0.000432945
0.00252967
-0.000449124
0.00256041
-0.000489698
0.00257058
-0.000526336
0.00254692
-0.000518223
0.00246237
-0.000398156
0.00227377
-6.38315e-05
0.0019335
0.000608756
0.00141964
0.00169884
0.000783669
0.00310867
0.000212287
0.0042131
0.00322786
0.000289081
-0.00155412
0.00069814
-0.00250322
0.00102933
-0.00235246
0.00124439
-0.00182353
0.00136776
-0.00128499
0.00143407
-0.00087608
0.00146856
-0.000617865
0.0014846
-0.000483553
0.00148757
-0.000435561
0.00147925
-0.000440465
0.00145998
-0.000470081
0.00142765
-0.000493649
0.00137423
-0.00046445
0.00128156
-0.000305129
0.00112153
9.65691e-05
0.000872765
0.000857881
0.000542275
0.00202968
0.000202744
0.00344853
-5.84147e-06
0.00442195
0.00322212
0.000203812
-0.00175785
0.000411538
-0.00271071
0.000503726
-0.00244432
0.000500795
-0.00182023
0.000451085
-0.0012349
0.00038872
-0.000813347
0.000328157
-0.000556941
0.000271715
-0.000426757
0.000217719
-0.000381214
0.000164848
-0.000387244
0.000112322
-0.000417204
5.74431e-05
-0.000438417
-6.85887e-06
-0.000399791
-9.08023e-05
-0.00022082
-0.000201
0.000207144
-0.000324545
0.000981806
-0.000418945
0.00212445
-0.000408393
0.00343831
-0.000233482
0.00424729
0.00298874
5.14579e-05
-0.0018092
-4.58386e-05
-0.00261315
-0.000270618
-0.00221919
-0.000534502
-0.00155598
-0.000776776
-0.000992263
-0.000976565
-0.000613199
-0.00113659
-0.000396565
-0.00126702
-0.000295985
-0.00137693
-0.000270953
-0.00147237
-0.000291472
-0.00155766
-0.000331569
-0.00163693
-0.000358798
-0.0017125
-0.000323868
-0.00177824
-0.000154731
-0.00180553
0.000234806
-0.00174218
0.00091882
-0.00151847
0.00190109
-0.00107873
0.00299888
-0.000467238
0.00363603
0.00252159
-0.000211471
-0.00159762
-0.000741459
-0.00208288
-0.00135163
-0.00160868
-0.00188995
-0.0010173
-0.00230934
-0.000572512
-0.00261943
-0.000302764
-0.00284835
-0.000167306
-0.00302388
-0.000120125
-0.00316723
-0.000127277
-0.00329271
-0.000165673
-0.00340847
-0.000215491
-0.00351488
-0.000252063
-0.0035991
-0.000239332
-0.0036264
-0.00012711
-0.00353454
0.00014327
-0.00323951
0.000624102
-0.00265981
0.0013217
-0.00176956
0.00210889
-0.000712581
0.00257925
0.0018091
-0.000616322
-0.000981175
-0.00165431
-0.00104461
-0.00258827
-0.000674361
-0.0032622
-0.00034302
-0.00369951
-0.000134855
-0.00397037
-3.15755e-05
-0.00414241
5.05611e-06
-0.00426752
5.29023e-06
-0.00437832
-1.61833e-05
-0.00449365
-5.00601e-05
-0.00462077
-8.80913e-05
-0.00475279
-0.000119776
-0.00486156
-0.0001303
-0.00489002
-9.83892e-05
-0.00475427
7.76964e-06
-0.00433533
0.000205416
-0.00353346
0.000520062
-0.00232665
0.000902304
-0.000918558
0.00117132
0.000890606
-0.00098104
-0.00202536
-0.00269938
-0.00304205
-0.00317656
-0.00320782
-0.00320247
-0.00319689
-0.00321281
-0.00326262
-0.00335048
-0.00347003
-0.00360012
-0.00369831
-0.00369035
-0.00348476
-0.00296453
-0.00206208
-0.000890653
)
;

boundaryField
{
    leftWall
    {
        type            calculated;
        value           nonuniform List<scalar> 10(0 0 0 0 0 2.1684e-19 0 0 0 0);
    }
    rightWall
    {
        type            calculated;
        value           nonuniform List<scalar> 10(0 0 0 0 4.33681e-19 0 0 4.33681e-19 4.33681e-19 0);
    }
    topWall
    {
        type            calculated;
        value           uniform 0;
    }
    bottomWall
    {
        type            calculated;
        value           uniform 0;
    }
    frontAndBackPlanes
    {
        type            empty;
    }
}


// ************************************************************************* //
