/*--------------------------------*- C++ -*----------------------------------*\
| =========                 |                                                 |
| \\      /  F ield         | OpenFOAM: The Open Source CFD Toolbox           |
|  \\    /   O peration     | Version:  2506                                  |
|   \\  /    A nd           | Website:  www.openfoam.com                      |
|    \\/     M anipulation  |                                                 |
\*---------------------------------------------------------------------------*/
FoamFile
{
    version     2.0;
    format      ascii;
    arch        "LSB;label=32;scalar=64";
    class       surfaceScalarField;
    location    "85";
    object      phi;
}
// * * * * * * * * * * * * * * * * * * * * * * * * * * * * * * * * * * * * * //

dimensions      [1 0 -1 0 0 0 0];

oriented        oriented;

internalField   nonuniform List<scalar> 
370
(
0.000183265
-0.000236998
0.00055602
-0.000372674
0.000901775
-0.000345635
0.00116374
-0.000261817
0.00134063
-0.000176725
0.00145599
-0.000115188
0.00153953
-8.33576e-05
0.00161803
-7.83152e-05
0.00171253
-9.43021e-05
0.00183858
-0.000125849
0.00200759
-0.000168797
0.00222725
-0.000219444
0.00249949
-0.000272023
0.00281361
-0.000313898
0.00313184
-0.000317993
0.00336344
-0.000231367
0.00332073
4.2944e-05
0.00278498
0.000535987
0.00152898
0.00125621
0.0015291
0.000329486
-0.00056644
0.00090836
-0.000951428
0.00148856
-0.000925668
0.00196532
-0.000738373
0.0023202
-0.000531393
0.00257494
-0.000369703
0.00276425
-0.000272439
0.00292173
-0.000235564
0.00307377
-0.000246119
0.00323797
-0.000289807
0.00342292
-0.00035351
0.0036274
-0.000423674
0.00383648
-0.000480848
0.00401328
-0.000490446
0.00408625
-0.000390703
0.00393908
-8.39281e-05
0.0034297
0.000552588
0.00239916
0.00156679
0.000979312
0.00267629
0.00250853
0.000358152
-0.000924533
0.000960439
-0.00155355
0.00155507
-0.00152007
0.00204166
-0.0012247
0.00240465
-0.0008941
0.00266548
-0.000630238
0.0028554
-0.000462079
0.00300263
-0.000382501
0.00312754
-0.000370739
0.0032419
-0.000403884
0.00334913
-0.000460446
0.00344338
-0.000517635
0.00350616
-0.00054333
0.00350013
-0.000484115
0.00336342
-0.000253694
0.0030123
0.000267503
0.00238066
0.00118453
0.00147472
0.00247302
0.000508332
0.00364292
0.00301698
0.000338337
-0.0012628
0.000876348
-0.00209137
0.00137609
-0.00201954
0.00175978
-0.00160808
0.00202831
-0.00116229
0.00220951
-0.000811105
0.0023328
-0.000585036
0.00241992
-0.000469286
0.00248386
-0.000434354
0.00253079
-0.000450485
0.00256169
-0.000491014
0.00257201
-0.000527622
0.00254849
-0.000519479
0.00246406
-0.000399345
0.00227554
-6.48336e-05
0.0019352
0.000608176
0.00142108
0.00169898
0.000784631
0.00310978
0.000212662
0.00421514
0.00322975
0.0002891
-0.00155182
0.000698405
-0.00250045
0.00103
-0.00235083
0.00124549
-0.00182322
0.00136922
-0.00128565
0.00143577
-0.000877291
0.00147039
-0.000619303
0.00148648
-0.000485024
0.00148946
-0.000436979
0.00148114
-0.000441812
0.00146185
-0.000471375
0.00142949
-0.000494918
0.00137607
-0.0004657
0.00128336
-0.000306281
0.00112326
9.56319e-05
0.000874334
0.000857472
0.000543523
0.00203015
0.000203522
0.00345011
-5.56456e-06
0.00442449
0.00322429
0.000204008
-0.00175574
0.000412291
-0.0027085
0.00050511
-0.00244332
0.000502691
-0.00182043
0.000453291
-0.00123587
0.000391051
-0.000814681
0.000330477
-0.000558367
0.000273944
-0.000428136
0.000219818
-0.000382501
0.000166805
-0.000388448
0.000114137
-0.000418355
5.9114e-05
-0.000439541
-5.34296e-06
-0.000400885
-8.94124e-05
-0.000221845
-0.000199798
0.000206396
-0.000323583
0.000981638
-0.000418278
0.00212521
-0.000408049
0.00344021
-0.000233405
0.00425009
0.00299098
5.17961e-05
-0.00180743
-4.48427e-05
-0.00261159
-0.000268976
-0.00221884
-0.000532449
-0.00155659
-0.000774571
-0.000993384
-0.000974404
-0.000614489
-0.00113459
-0.00039783
-0.00126523
-0.000297146
-0.00137539
-0.000272001
-0.00147106
-0.000292436
-0.00155658
-0.000332487
-0.00163608
-0.000359697
-0.00171187
-0.000324738
-0.00177787
-0.000155492
-0.00180544
0.000234333
-0.00174233
0.000918891
-0.00151876
0.001902
-0.00107904
0.0030008
-0.000467413
0.0036387
0.00252366
-0.000211068
-0.00159625
-0.000740401
-0.00208198
-0.00135011
-0.00160878
-0.00188827
-0.00101806
-0.00230776
-0.000573533
-0.00261811
-0.000303795
-0.00284735
-0.00016825
-0.00302323
-0.000120935
-0.00316694
-0.000127966
-0.00329276
-0.000166291
-0.00340885
-0.000216077
-0.00351559
-0.000252639
-0.00360012
-0.000239884
-0.00362772
-0.000127573
-0.00353609
0.000143028
-0.00324114
0.000624253
-0.0026613
0.00132246
-0.00177063
0.0021104
-0.000713047
0.00258133
0.0018107
-0.000615787
-0.00098034
-0.00165319
-0.00104429
-0.00258702
-0.00067461
-0.00326118
-0.000343542
-0.00369895
-0.000135415
-0.00397038
-3.20331e-05
-0.00414282
4.5042e-06
-0.00426835
4.90457e-06
-0.0043796
-1.64231e-05
-0.00449532
-5.02828e-05
-0.00462282
-8.83052e-05
-0.00475519
-0.000119994
-0.00486429
-0.00013052
-0.00489302
-9.85854e-05
-0.00475741
7.67341e-06
-0.00433838
0.000205467
-0.00353607
0.000520393
-0.00232846
0.000903007
-0.000919308
0.00117234
0.00089146
-0.000980203
-0.0020242
-0.00269846
-0.00304165
-0.00317673
-0.00320844
-0.00320364
-0.00319845
-0.00321461
-0.00326464
-0.00335271
-0.00347248
-0.00360279
-0.00370117
-0.00369331
-0.00348767
-0.00296711
-0.00206396
-0.000891508
)
;

boundaryField
{
    leftWall
    {
        type            calculated;
        value           nonuniform List<scalar> 10(0 1.35525e-20 0 0 0 0 0 0 0 8.67362e-19);
    }
    rightWall
    {
        type            calculated;
        value           uniform 0;
    }
    topWall
    {
        type            calculated;
        value           uniform 0;
    }
    bottomWall
    {
        type            calculated;
        value           uniform 0;
    }
    frontAndBackPlanes
    {
        type            empty;
    }
}


// ************************************************************************* //
