/*--------------------------------*- C++ -*----------------------------------*\
| =========                 |                                                 |
| \\      /  F ield         | OpenFOAM: The Open Source CFD Toolbox           |
|  \\    /   O peration     | Version:  2506                                  |
|   \\  /    A nd           | Website:  www.openfoam.com                      |
|    \\/     M anipulation  |                                                 |
\*---------------------------------------------------------------------------*/
FoamFile
{
    version     2.0;
    format      ascii;
    arch        "LSB;label=32;scalar=64";
    class       volVectorField;
    location    "85";
    object      U;
}
// * * * * * * * * * * * * * * * * * * * * * * * * * * * * * * * * * * * * * //

dimensions      [0 1 -1 0 0 0 0];

internalField   nonuniform List<vector> 
200
(
(0.0002213 -0.000775779 0)
(0.00150725 -0.00103975 0)
(0.00303966 -0.000815755 0)
(0.00436609 -0.000505357 0)
(0.00528444 -0.000255574 0)
(0.00587426 -0.000108255 0)
(0.00626482 -6.03547e-05 0)
(0.00658117 -9.10838e-05 0)
(0.00692499 -0.000178948 0)
(0.00737256 -0.000309766 0)
(0.00797994 -0.000478236 0)
(0.00878839 -0.000684589 0)
(0.00982315 -0.00092558 0)
(0.0110778 -0.00117743 0)
(0.0124694 -0.00136608 0)
(0.013737 -0.0013141 0)
(0.0142848 -0.000653456 0)
(0.0131866 0.00118772 0)
(0.00948739 0.00431971 0)
(0.00287155 0.00608444 0)
(0.000377705 -0.00329447 0)
(0.00253798 -0.00539653 0)
(0.00503094 -0.00514212 0)
(0.00729323 -0.00400602 0)
(0.00903938 -0.00279722 0)
(0.0102896 -0.0018881 0)
(0.0111837 -0.00138359 0)
(0.0118773 -0.00125408 0)
(0.0125005 -0.00142128 0)
(0.0131465 -0.00180394 0)
(0.0138707 -0.002333 0)
(0.0146908 -0.00294131 0)
(0.0155782 -0.00352823 0)
(0.0164337 -0.00389602 0)
(0.017044 -0.0036575 0)
(0.0170265 -0.00213119 0)
(0.0157698 0.0016803 0)
(0.0125697 0.00854189 0)
(0.00735737 0.0169536 0)
(0.00126512 0.0174656 0)
(0.000414299 -0.00622617 0)
(0.0027226 -0.01049 0)
(0.00528883 -0.0102914 0)
(0.00759901 -0.00830305 0)
(0.00938351 -0.00606202 0)
(0.0106662 -0.00427682 0)
(0.0115783 -0.00316039 0)
(0.0122565 -0.00267447 0)
(0.0128068 -0.0026817 0)
(0.0132971 -0.00302601 0)
(0.0137596 -0.00355929 0)
(0.0141911 -0.00412462 0)
(0.0145451 -0.00449999 0)
(0.0147116 -0.00430721 0)
(0.014487 -0.0029066 0)
(0.0135382 0.000651165 0)
(0.0115113 0.0073419 0)
(0.00823363 0.017266 0)
(0.00413157 0.0270672 0)
(0.000493188 0.0236371 0)
(0.000402531 -0.0091876 0)
(0.00253925 -0.0153979 0)
(0.00475929 -0.0150427 0)
(0.00664157 -0.0121168 0)
(0.00800532 -0.00885571 0)
(0.0089232 -0.00624735 0)
(0.00953399 -0.00456029 0)
(0.00995408 -0.00371457 0)
(0.0102578 -0.00350305 0)
(0.0104841 -0.00370241 0)
(0.0106474 -0.00410508 0)
(0.0107415 -0.00449053 0)
(0.010733 -0.0045469 0)
(0.0105417 -0.00376132 0)
(0.0100203 -0.00133007 0)
(0.00893886 0.0037822 0)
(0.00714773 0.0123511 0)
(0.00465041 0.0238451 0)
(0.00193423 0.033497 0)
(0.000108352 0.0265725 0)
(0.000367957 -0.0118572 0)
(0.00211076 -0.0194704 0)
(0.00368542 -0.0186474 0)
(0.00483933 -0.0147321 0)
(0.00553539 -0.0105729 0)
(0.00590951 -0.00732925 0)
(0.00610091 -0.00524267 0)
(0.00619487 -0.00414965 0)
(0.00622887 -0.00376903 0)
(0.00621537 -0.00383137 0)
(0.00615809 -0.00410206 0)
(0.00605494 -0.00433011 0)
(0.00588788 -0.00414497 0)
(0.00560392 -0.00293415 0)
(0.00509553 0.000216572 0)
(0.00424308 0.00633053 0)
(0.00300684 0.0159699 0)
(0.00151604 0.0280145 0)
(0.000187811 0.0368156 0)
(-0.000167568 0.0274103 0)
(0.000299221 -0.0139893 0)
(0.00138377 -0.0222034 0)
(0.00200091 -0.0205801 0)
(0.00216594 -0.0157377 0)
(0.00203076 -0.010946 0)
(0.00177656 -0.00737182 0)
(0.00150942 -0.00513843 0)
(0.00126198 -0.0039749 0)
(0.00103107 -0.00354384 0)
(0.00080803 -0.00356106 0)
(0.000588607 -0.00379003 0)
(0.000367217 -0.00396224 0)
(0.000125533 -0.00365833 0)
(-0.000178837 -0.00219312 0)
(-0.000600385 0.00138902 0)
(-0.0011166 0.00800758 0)
(-0.00160932 0.0179366 0)
(-0.00182869 0.0295784 0)
(-0.00149124 0.0370591 0)
(-0.000367831 0.0264417 0)
(0.000170232 -0.0151661 0)
(0.000170048 -0.0228777 0)
(-0.000585272 -0.0201901 0)
(-0.00167288 -0.0146915 0)
(-0.00276211 -0.00973276 0)
(-0.00369412 -0.00625881 0)
(-0.0044421 -0.00419354 0)
(-0.00504158 -0.00317189 0)
(-0.00553747 -0.00284105 0)
(-0.0059624 -0.00293016 0)
(-0.0063379 -0.00320736 0)
(-0.00668335 -0.00338742 0)
(-0.00701751 -0.00303009 0)
(-0.0073393 -0.00147417 0)
(-0.00758337 0.00211494 0)
(-0.00755518 0.00844573 0)
(-0.00697763 0.0175755 0)
(-0.00557655 0.0278388 0)
(-0.00335509 0.0338669 0)
(-0.000623457 0.0235355 0)
(-0.000128014 -0.0146255 0)
(-0.00185668 -0.0203792 0)
(-0.00438062 -0.0166954 0)
(-0.00686672 -0.0112355 0)
(-0.00888939 -0.00682069 0)
(-0.0103993 -0.00397456 0)
(-0.0115014 -0.00242755 0)
(-0.0123253 -0.00177608 0)
(-0.012977 -0.00169484 0)
(-0.013531 -0.00194878 0)
(-0.0140355 -0.00233159 0)
(-0.0145126 -0.00258533 0)
(-0.0149449 -0.00233181 0)
(-0.0152414 -0.00104505 0)
(-0.0151838 0.00189006 0)
(-0.0144324 0.00698408 0)
(-0.0126047 0.0142316 0)
(-0.00945871 0.0222675 0)
(-0.00529289 0.0268617 0)
(-0.000904574 0.0185659 0)
(-0.000727177 -0.0112476 0)
(-0.00477205 -0.013755 0)
(-0.00902884 -0.00985583 0)
(-0.0124578 -0.00559516 0)
(-0.0147628 -0.0026465 0)
(-0.0161877 -0.00102411 0)
(-0.0170616 -0.000338642 0)
(-0.0176467 -0.000229446 0)
(-0.0181191 -0.000450662 0)
(-0.0185841 -0.000845177 0)
(-0.0190975 -0.00128807 0)
(-0.0196643 -0.0016286 0)
(-0.020219 -0.00164698 0)
(-0.0205932 -0.00103723 0)
(-0.0204752 0.000574382 0)
(-0.0193873 0.00355482 0)
(-0.0168299 0.00797697 0)
(-0.0125199 0.0130704 0)
(-0.00690921 0.0162683 0)
(-0.00118008 0.0116061 0)
(-0.00178432 -0.00382105 0)
(-0.00647999 -0.00358589 0)
(-0.0100992 -0.00188126 0)
(-0.0122377 -0.000584038 0)
(-0.0131772 8.91082e-05 0)
(-0.0134545 0.000340431 0)
(-0.0134605 0.000361427 0)
(-0.013411 0.00026862 0)
(-0.0134197 0.000124992 0)
(-0.0135537 -4.03009e-05 0)
(-0.0138482 -0.000214243 0)
(-0.0143024 -0.000382204 0)
(-0.0148646 -0.000513117 0)
(-0.0154044 -0.000548877 0)
(-0.0156746 -0.000391171 0)
(-0.0153071 0.000115142 0)
(-0.0138015 0.00110876 0)
(-0.0107371 0.00254168 0)
(-0.00632341 0.00382487 0)
(-0.00151831 0.0032649 0)
)
;

boundaryField
{
    leftWall
    {
        type            fixedValue;
        value           uniform (0 0 0);
    }
    rightWall
    {
        type            fixedValue;
        value           uniform (0 0 0);
    }
    topWall
    {
        type            fixedValue;
        value           uniform (0 0 0);
    }
    bottomWall
    {
        type            fixedValue;
        value           uniform (0 0 0);
    }
    frontAndBackPlanes
    {
        type            empty;
    }
}


// ************************************************************************* //
