/*--------------------------------*- C++ -*----------------------------------*\
| =========                 |                                                 |
| \\      /  F ield         | OpenFOAM: The Open Source CFD Toolbox           |
|  \\    /   O peration     | Version:  2506                                  |
|   \\  /    A nd           | Website:  www.openfoam.com                      |
|    \\/     M anipulation  |                                                 |
\*---------------------------------------------------------------------------*/
FoamFile
{
    version     2.0;
    format      ascii;
    arch        "LSB;label=32;scalar=64";
    class       volScalarField;
    location    "34.2";
    object      T;
}
// * * * * * * * * * * * * * * * * * * * * * * * * * * * * * * * * * * * * * //

dimensions      [0 0 0 1 0 0 0];

internalField   nonuniform List<scalar> 
200
(
273.15
273.149
273.148
273.147
273.147
273.146
273.146
273.146
273.146
273.145
273.145
273.145
273.146
273.147
273.15
273.157
273.18
273.241
273.406
273.792
273.15
273.149
273.149
273.148
273.148
273.148
273.147
273.147
273.147
273.147
273.147
273.146
273.146
273.146
273.148
273.153
273.172
273.234
273.408
273.811
273.15
273.15
273.15
273.151
273.151
273.152
273.152
273.153
273.152
273.152
273.151
273.15
273.149
273.148
273.148
273.153
273.174
273.242
273.431
273.836
273.15
273.151
273.153
273.156
273.16
273.163
273.165
273.166
273.166
273.165
273.163
273.161
273.157
273.154
273.152
273.157
273.181
273.259
273.46
273.862
273.151
273.155
273.16
273.168
273.177
273.183
273.188
273.191
273.191
273.189
273.185
273.18
273.172
273.165
273.161
273.167
273.197
273.287
273.498
273.889
273.153
273.16
273.173
273.189
273.205
273.218
273.227
273.23
273.23
273.226
273.22
273.21
273.198
273.187
273.183
273.192
273.231
273.336
273.554
273.917
273.155
273.169
273.192
273.222
273.25
273.27
273.281
273.286
273.285
273.281
273.274
273.265
273.254
273.245
273.247
273.264
273.312
273.418
273.62
273.943
273.158
273.183
273.222
273.267
273.307
273.335
273.353
273.363
273.369
273.372
273.373
273.372
273.371
273.37
273.375
273.395
273.441
273.534
273.703
273.973
273.163
273.198
273.252
273.313
273.368
273.411
273.443
273.467
273.487
273.503
273.516
273.528
273.538
273.547
273.556
273.575
273.613
273.683
273.808
274.011
273.163
273.201
273.259
273.326
273.39
273.445
273.492
273.531
273.565
273.594
273.621
273.646
273.67
273.694
273.718
273.744
273.779
273.833
273.919
274.053
)
;

boundaryField
{
    leftWall
    {
        type            fixedValue;
        value           uniform 273.15;
    }
    rightWall
    {
        type            customNeumannDirichletCoupledBoundary;
        refValue        nonuniform List<scalar> 10(274.125 274.126 274.127 274.129 274.131 274.133 274.135 274.137 274.139 274.141);
        refGradient     uniform 0;
        valueFraction   uniform 1;
        source          uniform 0;
        value           nonuniform List<scalar> 10(274.125 274.126 274.127 274.129 274.131 274.133 274.135 274.137 274.139 274.141);
        kappaMethod     fluidThermo;
    }
    topWall
    {
        type            zeroGradient;
    }
    bottomWall
    {
        type            zeroGradient;
    }
    frontAndBackPlanes
    {
        type            empty;
    }
}


// ************************************************************************* //
