/*--------------------------------*- C++ -*----------------------------------*\
| =========                 |                                                 |
| \\      /  F ield         | OpenFOAM: The Open Source CFD Toolbox           |
|  \\    /   O peration     | Version:  2506                                  |
|   \\  /    A nd           | Website:  www.openfoam.com                      |
|    \\/     M anipulation  |                                                 |
\*---------------------------------------------------------------------------*/
FoamFile
{
    version     2.0;
    format      ascii;
    arch        "LSB;label=32;scalar=64";
    class       surfaceScalarField;
    location    "47.8";
    object      phi;
}
// * * * * * * * * * * * * * * * * * * * * * * * * * * * * * * * * * * * * * //

dimensions      [1 0 -1 0 0 0 0];

oriented        oriented;

internalField   nonuniform List<scalar> 
370
(
5.14268e-06
-8.97692e-05
0.000181534
-0.000176356
0.000393822
-0.000212235
0.000608848
-0.000214958
0.000808041
-0.000199117
0.000987748
-0.000179625
0.00115429
-0.000166454
0.00131926
-0.000164881
0.00149647
-0.000177125
0.00170008
-0.000203507
0.00194294
-0.000242767
0.00223446
-0.000291418
0.00257604
-0.000341472
0.00295307
-0.000376927
0.00332129
-0.000368108
0.00358295
-0.00026155
0.00354169
4.13618e-05
0.00297396
0.000567844
0.00164038
0.00133369
0.00164044
0.00015575
-0.000245491
0.000501029
-0.000521553
0.000917637
-0.000628719
0.00133284
-0.000630014
0.00171392
-0.000580033
0.0020533
-0.000518835
0.002358
-0.000470974
0.0026419
-0.000448606
0.0029204
-0.000455441
0.00320658
-0.000489497
0.00350785
-0.000543847
0.00382164
-0.000605001
0.00412906
-0.000648691
0.00438553
-0.000633192
0.00450859
-0.000490968
0.00436998
-0.000122743
0.00381831
0.000593224
0.00268283
0.00170351
0.00110535
0.00291135
0.00274589
0.000230779
-0.000476212
0.000677824
-0.00096843
0.00118364
-0.00113429
0.0016615
-0.00110759
0.00207753
-0.00099575
0.00242857
-0.000869561
0.00272596
-0.000768055
0.00298544
-0.000707771
0.0032214
-0.00069108
0.00344362
-0.000711392
0.00365469
-0.000754594
0.00384658
-0.000796553
0.0039952
-0.000796974
0.00405337
-0.000691028
0.00394545
-0.00038272
0.00357245
0.000250555
0.00285418
0.00131179
0.00179644
0.00276154
0.000640711
0.00406733
0.00338674
0.00026613
-0.000742244
0.000746803
-0.00144883
0.0012505
-0.00163759
0.00168832
-0.00154497
0.00203601
-0.00134298
0.00230184
-0.00113493
0.00250549
-0.000971256
0.00266678
-0.00086861
0.00280085
-0.000824704
0.00291678
-0.00082687
0.00301686
-0.000854219
0.00309473
-0.000873952
0.00313126
-0.000833038
0.00308912
-0.000648427
0.00291057
-0.000203732
0.00252824
0.000633301
0.00190745
0.00193297
0.00110328
0.00356608
0.000337598
0.00483333
0.0037245
0.000270842
-0.00101295
0.000713054
-0.00189067
0.00112708
-0.0020511
0.00143924
-0.00185654
0.0016455
-0.00154865
0.00177018
-0.00125904
0.00184175
-0.00104226
0.00188262
-0.000908937
0.00190731
-0.000848841
0.00192363
-0.000842635
0.00193392
-0.000863939
0.00193432
-0.000873756
0.00191178
-0.000809906
0.00184028
-0.00057634
0.00167945
-4.23416e-05
0.00138725
0.000926004
0.000956622
0.00236408
0.00046475
0.0040584
8.77061e-05
0.00521075
0.00381238
0.000230984
-0.00124376
0.000542962
-0.00220218
0.000767473
-0.00227499
0.000870328
-0.00195872
0.000877294
-0.00155495
0.000828046
-0.00120916
0.000753844
-0.000967441
0.000673564
-0.000828044
0.000596641
-0.000771295
0.00052686
-0.000772207
0.000464122
-0.000800525
0.000403885
-0.000812812
0.000335738
-0.000741035
0.000243882
-0.000483763
0.000112954
8.92611e-05
-5.07086e-05
0.0010903
-0.0002098
0.00252376
-0.000284852
0.00413398
-0.000193599
0.0051199
0.00361894
0.00011849
-0.00136204
0.000167765
-0.00225091
7.93838e-05
-0.0021859
-0.000109585
-0.00176902
-0.000343773
-0.00132007
-0.000582251
-0.000970018
-0.000804307
-0.000744738
-0.0010034
-0.000628294
-0.00118001
-0.000594008
-0.00133731
-0.000614193
-0.0014797
-0.000657393
-0.00161204
-0.000679704
-0.00173689
-0.000615398
-0.00184717
-0.000372692
-0.00191236
0.000155207
-0.00186874
0.00104739
-0.00163976
0.00229541
-0.00117059
0.00366535
-0.000510777
0.00446048
0.00310832
-0.000116294
-0.0012455
-0.000490419
-0.00187616
-0.00100136
-0.0016742
-0.00152657
-0.00124307
-0.00199937
-0.000846585
-0.00240162
-0.000567106
-0.00273975
-0.00040596
-0.00302906
-0.000338328
-0.00328547
-0.000336933
-0.00352182
-0.000377152
-0.00374558
-0.000432935
-0.00395475
-0.000469819
-0.00413046
-0.000438961
-0.00422679
-0.000275635
-0.00416404
9.31825e-05
-0.00383764
0.000721673
-0.00315649
0.00161488
-0.00210032
0.0026097
-0.000846213
0.00320675
0.00226226
-0.00048083
-0.000764375
-0.00137857
-0.000977744
-0.00228999
-0.000761987
-0.00304128
-0.000491042
-0.00360622
-0.000280981
-0.00402063
-0.000152084
-0.00433547
-9.05343e-05
-0.00459693
-7.63139e-05
-0.00483992
-9.33823e-05
-0.00508686
-0.000129656
-0.00534591
-0.000173327
-0.00560572
-0.000209454
-0.0058268
-0.000217309
-0.00593288
-0.000168984
-0.00581251
-2.66115e-05
-0.00532475
0.000234461
-0.00434898
0.00063961
-0.00286699
0.00112815
-0.00113336
0.00147344
0.00112903
-0.000764038
-0.00174104
-0.00250219
-0.00299245
-0.00327276
-0.00342426
-0.00351427
-0.00359011
-0.00368305
-0.00381229
-0.00398521
-0.00419427
-0.00441118
-0.00457979
-0.00460602
-0.0043712
-0.00373124
-0.00260279
-0.00112913
)
;

boundaryField
{
    leftWall
    {
        type            calculated;
        value           nonuniform List<scalar> 10(-1.05879e-22 0 6.77626e-21 0 0 0 0 -2.1684e-19 0 0);
    }
    rightWall
    {
        type            calculated;
        value           uniform 0;
    }
    topWall
    {
        type            calculated;
        value           uniform 0;
    }
    bottomWall
    {
        type            calculated;
        value           uniform 0;
    }
    frontAndBackPlanes
    {
        type            empty;
    }
}


// ************************************************************************* //
