/*--------------------------------*- C++ -*----------------------------------*\
| =========                 |                                                 |
| \\      /  F ield         | OpenFOAM: The Open Source CFD Toolbox           |
|  \\    /   O peration     | Version:  2506                                  |
|   \\  /    A nd           | Website:  www.openfoam.com                      |
|    \\/     M anipulation  |                                                 |
\*---------------------------------------------------------------------------*/
FoamFile
{
    version     2.0;
    format      ascii;
    arch        "LSB;label=32;scalar=64";
    class       volScalarField;
    location    "15";
    object      p_rgh;
}
// * * * * * * * * * * * * * * * * * * * * * * * * * * * * * * * * * * * * * //

dimensions      [1 -1 -2 0 0 0 0];

internalField   nonuniform List<scalar> 
200
(
100000
100000
100000
100000
100000
100000
100000
100000
100000
100000
100000
100000
99999.9
99999.8
99999.7
99999.6
99999.4
99999.2
99998.8
99998.1
100000
100000
100000
100000
100000
100000
100000
100000
100000
100000
100000
100000
99999.9
99999.9
99999.8
99999.7
99999.6
99999.3
99998.5
99997
100000
100000
100000
100000
100000
100000
100000
100000
100000
100000
100000
100000
100000
99999.9
99999.8
99999.7
99999.6
99999.1
99997.9
99995.2
100000
100000
100000
100000
100000
100000
100000
100000
100000
100000
100000
100000
100000
100000
99999.9
99999.8
99999.5
99998.7
99996.9
99993.2
100000
100000
100000
100000
100000
100000
100000
100000
100000
100000
100000
100000
100000
100000
99999.9
99999.7
99999.3
99998.2
99995.6
99991
100000
100000
100000
100000
100000
100000
100000
100000
100000
100000
100000
100000
100000
100000
99999.9
99999.6
99998.9
99997.4
99994.1
99988.6
100000
100000
100000
100001
100001
100001
100001
100001
100001
100000
100000
100000
99999.9
99999.7
99999.5
99999
99998
99996
99992.3
99986.4
100000
100000
100001
100001
100001
100001
100001
100001
100001
100000
100000
99999.7
99999.2
99998.7
99998.2
99997.4
99996.2
99994.1
99990.3
99984.3
100000
100000
100001
100001
100001
100001
100001
100001
100001
100000
99999.7
99998.7
99997.7
99996.6
99995.6
99994.7
99993.4
99991.4
99988
99982.4
100000
100000
100001
100001
100001
100001
100001
100001
100001
100000
99999.6
99998.3
99996.7
99995.1
99993.5
99992
99990.5
99988.5
99985.6
99980.9
)
;

boundaryField
{
    leftWall
    {
        type            fixedFluxPressure;
        gradient        nonuniform List<scalar> 10(-0.020845 -0.154522 -0.499961 -1.07251 -1.88776 -2.97985 -4.38128 -6.03247 -7.69708 -9.02795);
        value           nonuniform List<scalar> 10(100000 100000 100000 100000 100000 100000 100000 100000 99999.9 99999.8);
    }
    rightWall
    {
        type            fixedFluxPressure;
        gradient        nonuniform List<scalar> 10(-18.0389 -51.0052 -78.2168 -100.673 -118.63 -130.783 -141.472 -147.512 -144.49 -131.459);
        value           nonuniform List<scalar> 10(99997.7 99995.7 99993.3 99990.7 99988 99985.4 99982.9 99980.6 99978.8 99977.6);
    }
    topWall
    {
        type            fixedFluxPressure;
        gradient        uniform 0;
        value           nonuniform List<scalar> 
20
(
100000
100000
100000
100000
100000
100000
100000
100000
100000
100000
100000
100000
99999.9
99999.8
99999.7
99999.6
99999.4
99999.2
99998.8
99998.1
)
;
    }
    bottomWall
    {
        type            fixedFluxPressure;
        gradient        uniform 0;
        value           nonuniform List<scalar> 
20
(
100000
100000
100001
100001
100001
100001
100001
100001
100001
100000
99999.6
99998.3
99996.7
99995.1
99993.5
99992
99990.5
99988.5
99985.6
99980.9
)
;
    }
    frontAndBackPlanes
    {
        type            empty;
    }
}


// ************************************************************************* //
