/*--------------------------------*- C++ -*----------------------------------*\
| =========                 |                                                 |
| \\      /  F ield         | OpenFOAM: The Open Source CFD Toolbox           |
|  \\    /   O peration     | Version:  2506                                  |
|   \\  /    A nd           | Website:  www.openfoam.com                      |
|    \\/     M anipulation  |                                                 |
\*---------------------------------------------------------------------------*/
FoamFile
{
    version     2.0;
    format      ascii;
    arch        "LSB;label=32;scalar=64";
    class       volVectorField;
    location    "15";
    object      U;
}
// * * * * * * * * * * * * * * * * * * * * * * * * * * * * * * * * * * * * * //

dimensions      [0 1 -1 0 0 0 0];

internalField   nonuniform List<vector> 
200
(
(-0.000250762 -0.000107092 0)
(-0.000275249 -0.000180828 0)
(8.71769e-05 -0.000224939 0)
(0.000669461 -0.000314021 0)
(0.00140783 -0.00040739 0)
(0.00232364 -0.000494043 0)
(0.00340195 -0.000577157 0)
(0.00462673 -0.00066011 0)
(0.00598388 -0.000745381 0)
(0.00745772 -0.000834878 0)
(0.0090275 -0.000930035 0)
(0.0106644 -0.00103113 0)
(0.0123275 -0.00113454 0)
(0.0139521 -0.00122459 0)
(0.015417 -0.00125036 0)
(0.0164626 -0.00106894 0)
(0.0165769 -0.000338208 0)
(0.0149076 0.00152413 0)
(0.0105457 0.00473682 0)
(0.00314465 0.00662523 0)
(-1.59193e-05 -0.000303473 0)
(0.000216827 -0.00094912 0)
(0.000867091 -0.00164131 0)
(0.00187747 -0.00235255 0)
(0.0032157 -0.003015 0)
(0.00484835 -0.00361446 0)
(0.00673735 -0.00415297 0)
(0.00884183 -0.00463169 0)
(0.0111145 -0.00504302 0)
(0.013494 -0.00536727 0)
(0.0158968 -0.00557096 0)
(0.0182076 -0.00560263 0)
(0.0202685 -0.00537998 0)
(0.0218651 -0.00475765 0)
(0.0227069 -0.00345935 0)
(0.0223853 -0.000959662 0)
(0.0203038 0.00360831 0)
(0.0158599 0.0109501 0)
(0.00916631 0.0196483 0)
(0.00158112 0.0197469 0)
(2.81379e-05 -0.000577197 0)
(0.000390163 -0.00200126 0)
(0.00115012 -0.00350999 0)
(0.00228567 -0.00495896 0)
(0.00375218 -0.00627755 0)
(0.00550815 -0.00744538 0)
(0.00751193 -0.00845842 0)
(0.00971636 -0.00930313 0)
(0.0120608 -0.00994145 0)
(0.0144613 -0.0103043 0)
(0.0168005 -0.0102897 0)
(0.0189203 -0.00975886 0)
(0.0206155 -0.00852072 0)
(0.0216313 -0.00629353 0)
(0.0216587 -0.00263726 0)
(0.0202994 0.00312079 0)
(0.0172222 0.0116595 0)
(0.0123344 0.022896 0)
(0.00631743 0.033241 0)
(0.000840488 0.0282238 0)
(2.47034e-05 -0.000972021 0)
(0.000356191 -0.00317606 0)
(0.0010261 -0.00541333 0)
(0.00201602 -0.00752528 0)
(0.00329019 -0.00943277 0)
(0.00481649 -0.0111116 0)
(0.00656376 -0.0125504 0)
(0.00849429 -0.0137135 0)
(0.0105528 -0.0145199 0)
(0.0126538 -0.0148361 0)
(0.0146714 -0.0144793 0)
(0.0164363 -0.013223 0)
(0.0177398 -0.0107892 0)
(0.0183455 -0.00681478 0)
(0.0179982 -0.000800396 0)
(0.0163894 0.00787657 0)
(0.0133861 0.019564 0)
(0.00908349 0.0333236 0)
(0.00425618 0.0437448 0)
(0.000463492 0.0337056 0)
(1.13124e-05 -0.00125793 0)
(0.000195311 -0.00404426 0)
(0.000603593 -0.00684889 0)
(0.00123664 -0.00949209 0)
(0.00208357 -0.0118854 0)
(0.00313412 -0.0140052 0)
(0.00437979 -0.0158346 0)
(0.00580598 -0.0173126 0)
(0.00737723 -0.0183044 0)
(0.00902115 -0.0185979 0)
(0.0106183 -0.0179202 0)
(0.0120045 -0.0159647 0)
(0.0129885 -0.0123995 0)
(0.0133757 -0.00683693 0)
(0.0129555 0.00121389 0)
(0.0115463 0.0122398 0)
(0.00911663 0.0262455 0)
(0.00585175 0.0415144 0)
(0.00244677 0.0512898 0)
(0.000180175 0.0370698 0)
(-1.359e-05 -0.00132099 0)
(-6.51792e-05 -0.00436121 0)
(-5.58196e-05 -0.00748325 0)
(4.54391e-05 -0.0104665 0)
(0.000260125 -0.013209 0)
(0.00060441 -0.0156894 0)
(0.0011004 -0.0178893 0)
(0.00176565 -0.0197201 0)
(0.00259478 -0.0209837 0)
(0.00354041 -0.0213731 0)
(0.00450431 -0.020516 0)
(0.00534709 -0.018035 0)
(0.0059169 -0.0135789 0)
(0.00608461 -0.00678408 0)
(0.00572083 0.0027899 0)
(0.00475331 0.0155011 0)
(0.00330078 0.0309743 0)
(0.00162372 0.0468428 0)
(0.000198298 0.0555196 0)
(-0.000174379 0.0383328 0)
(-4.86415e-05 -0.00107395 0)
(-0.000384013 -0.00393453 0)
(-0.000854806 -0.00704451 0)
(-0.00141597 -0.010096 0)
(-0.0020213 -0.0129661 0)
(-0.00263012 -0.0156443 0)
(-0.0031935 -0.0181186 0)
(-0.00366185 -0.0202767 0)
(-0.00400514 -0.0218543 0)
(-0.00423142 -0.0224463 0)
(-0.00438927 -0.0215851 0)
(-0.00454847 -0.0188443 0)
(-0.00476516 -0.0138873 0)
(-0.00504433 -0.00641492 0)
(-0.00535093 0.00389232 0)
(-0.00553467 0.0171483 0)
(-0.00531209 0.0326335 0)
(-0.00443089 0.0476803 0)
(-0.00282925 0.0548337 0)
(-0.00058819 0.036814 0)
(-7.31311e-05 -0.000502945 0)
(-0.000620984 -0.00269849 0)
(-0.00151936 -0.00537039 0)
(-0.00274461 -0.0080876 0)
(-0.00425472 -0.0107055 0)
(-0.00600568 -0.0132371 0)
(-0.00793907 -0.0156912 0)
(-0.00998595 -0.0179459 0)
(-0.0120786 -0.0196872 0)
(-0.0141572 -0.0204419 0)
(-0.01616 -0.0197024 0)
(-0.0179983 -0.0170741 0)
(-0.0195294 -0.0123257 0)
(-0.020535 -0.0053147 0)
(-0.0206807 0.00407151 0)
(-0.0195433 0.0157627 0)
(-0.0167993 0.0290866 0)
(-0.0123641 0.0417188 0)
(-0.0068088 0.0473408 0)
(-0.00117935 0.0314522 0)
(-3.34014e-05 0.000165624 0)
(-0.000463706 -0.00103633 0)
(-0.00143658 -0.00280639 0)
(-0.00299967 -0.00466198 0)
(-0.00513622 -0.00647615 0)
(-0.00782137 -0.00829849 0)
(-0.0110251 -0.0101732 0)
(-0.0147 -0.0120079 0)
(-0.0187578 -0.0135162 0)
(-0.0230416 -0.0142669 0)
(-0.0273066 -0.0138371 0)
(-0.0312159 -0.0119748 0)
(-0.034357 -0.00863284 0)
(-0.0362596 -0.00385276 0)
(-0.0363341 0.00237383 0)
(-0.033938 0.0100911 0)
(-0.0287604 0.0189921 0)
(-0.0208137 0.0275964 0)
(-0.0111862 0.0317304 0)
(-0.0018854 0.0215196 0)
(0.00011137 0.000256985 0)
(0.000141186 2.96723e-05 0)
(-0.000335049 -0.000386483 0)
(-0.00140092 -0.000809404 0)
(-0.00302344 -0.00121076 0)
(-0.00520011 -0.00162677 0)
(-0.00795846 -0.00209298 0)
(-0.0113317 -0.0025974 0)
(-0.0152926 -0.00305936 0)
(-0.0196822 -0.00334612 0)
(-0.0241835 -0.00333519 0)
(-0.0283677 -0.00298184 0)
(-0.0317771 -0.00232438 0)
(-0.0339778 -0.00141022 0)
(-0.0345351 -0.000189575 0)
(-0.0329705 0.00154613 0)
(-0.0287486 0.00393893 0)
(-0.0215962 0.00671973 0)
(-0.0123501 0.00867343 0)
(-0.00299583 0.00669187 0)
)
;

boundaryField
{
    leftWall
    {
        type            fixedValue;
        value           uniform (0 0 0);
    }
    rightWall
    {
        type            fixedValue;
        value           uniform (0 0 0);
    }
    topWall
    {
        type            fixedValue;
        value           uniform (0 0 0);
    }
    bottomWall
    {
        type            fixedValue;
        value           uniform (0 0 0);
    }
    frontAndBackPlanes
    {
        type            empty;
    }
}


// ************************************************************************* //
