/*--------------------------------*- C++ -*----------------------------------*\
| =========                 |                                                 |
| \\      /  F ield         | OpenFOAM: The Open Source CFD Toolbox           |
|  \\    /   O peration     | Version:  2506                                  |
|   \\  /    A nd           | Website:  www.openfoam.com                      |
|    \\/     M anipulation  |                                                 |
\*---------------------------------------------------------------------------*/
FoamFile
{
    version     2.0;
    format      ascii;
    arch        "LSB;label=32;scalar=64";
    class       volScalarField;
    location    "60";
    object      p_rgh;
}
// * * * * * * * * * * * * * * * * * * * * * * * * * * * * * * * * * * * * * //

dimensions      [1 -1 -2 0 0 0 0];

internalField   nonuniform List<scalar> 
200
(
100000
100000
100000
100000
100000
100000
100000
100000
99999.9
99999.9
99999.9
99999.9
99999.8
99999.8
99999.7
99999.6
99999.4
99999.2
99998.8
99998.1
100000
100000
100000
100000
100000
99999.9
99999.9
99999.9
99999.9
99999.9
99999.8
99999.8
99999.8
99999.7
99999.7
99999.6
99999.5
99999.2
99998.5
99997
100000
100000
99999.9
99999.8
99999.8
99999.7
99999.7
99999.7
99999.7
99999.7
99999.7
99999.7
99999.6
99999.6
99999.6
99999.6
99999.5
99999
99997.8
99995.3
100000
100000
99999.7
99999.5
99999.4
99999.4
99999.3
99999.3
99999.3
99999.4
99999.4
99999.4
99999.4
99999.5
99999.5
99999.5
99999.3
99998.6
99996.8
99993.4
100000
99999.8
99999.4
99999
99998.9
99998.8
99998.8
99998.8
99998.8
99998.9
99998.9
99998.9
99999
99999.1
99999.3
99999.3
99999
99998
99995.6
99991.4
100001
99999.7
99998.9
99998.4
99998.1
99998.1
99998.1
99998.1
99998.1
99998.1
99998.2
99998.2
99998.4
99998.6
99998.8
99998.7
99998.3
99996.9
99994.1
99989.5
100001
99999.4
99998.3
99997.5
99997.2
99997.1
99997.1
99997
99997
99997
99997
99997.1
99997.2
99997.4
99997.5
99997.4
99996.8
99995.3
99992.4
99987.6
100001
99999.1
99997.5
99996.6
99996.1
99995.9
99995.7
99995.5
99995.4
99995.3
99995.2
99995.2
99995.2
99995.2
99995.3
99995.1
99994.5
99993.1
99990.3
99985.9
100002
99998.6
99996.6
99995.5
99994.8
99994.3
99993.9
99993.6
99993.3
99993
99992.8
99992.5
99992.4
99992.2
99992.1
99991.9
99991.3
99990.2
99988
99984.2
100002
99998.3
99996.1
99994.7
99993.9
99993.3
99992.8
99992.3
99991.9
99991.4
99991
99990.5
99990.1
99989.7
99989.2
99988.8
99988.2
99987.3
99985.6
99982.9
)
;

boundaryField
{
    leftWall
    {
        type            fixedFluxPressure;
        gradient        nonuniform List<scalar> 10(0.108134 0.843724 2.98623 7.16617 13.7481 23.0057 35.4276 52.6779 74.7883 94.9059);
        value           nonuniform List<scalar> 10(100000 100000 100000 100000 100001 100001 100002 100003 100004 100004);
    }
    rightWall
    {
        type            fixedFluxPressure;
        gradient        nonuniform List<scalar> 10(-17.1093 -47.3657 -70.7536 -88.3802 -100.497 -109.003 -112.678 -108.408 -92.894 -69.3758);
        value           nonuniform List<scalar> 10(99997.7 99995.8 99993.5 99991.2 99988.9 99986.8 99984.8 99983.2 99981.9 99981.2);
    }
    topWall
    {
        type            fixedFluxPressure;
        gradient        uniform 0;
        value           nonuniform List<scalar> 
20
(
100000
100000
100000
100000
100000
100000
100000
100000
99999.9
99999.9
99999.9
99999.9
99999.8
99999.8
99999.7
99999.6
99999.4
99999.2
99998.8
99998.1
)
;
    }
    bottomWall
    {
        type            fixedFluxPressure;
        gradient        uniform 0;
        value           nonuniform List<scalar> 
20
(
100002
99998.3
99996.1
99994.7
99993.9
99993.3
99992.8
99992.3
99991.9
99991.4
99991
99990.5
99990.1
99989.7
99989.2
99988.8
99988.2
99987.3
99985.6
99982.9
)
;
    }
    frontAndBackPlanes
    {
        type            empty;
    }
}


// ************************************************************************* //
