/*--------------------------------*- C++ -*----------------------------------*\
| =========                 |                                                 |
| \\      /  F ield         | OpenFOAM: The Open Source CFD Toolbox           |
|  \\    /   O peration     | Version:  2506                                  |
|   \\  /    A nd           | Website:  www.openfoam.com                      |
|    \\/     M anipulation  |                                                 |
\*---------------------------------------------------------------------------*/
FoamFile
{
    version     2.0;
    format      ascii;
    arch        "LSB;label=32;scalar=64";
    class       surfaceScalarField;
    location    "60";
    object      phi;
}
// * * * * * * * * * * * * * * * * * * * * * * * * * * * * * * * * * * * * * //

dimensions      [1 0 -1 0 0 0 0];

oriented        oriented;

internalField   nonuniform List<scalar> 
370
(
6.13468e-05
-0.000134187
0.000298955
-0.000237546
0.000550549
-0.000251502
0.000774977
-0.000224317
0.000960125
-0.000185024
0.00111215
-0.000151898
0.00124562
-0.000133327
0.00137723
-0.000131474
0.00152303
-0.000145653
0.00169746
-0.000174283
0.00191307
-0.000215454
0.00217938
-0.000266145
0.00249908
-0.000319533
0.00286013
-0.000360873
0.00322107
-0.000360761
0.00348601
-0.000264757
0.00345613
3.00673e-05
0.00290982
0.000546492
0.00160609
0.0013039
0.00160618
0.000214976
-0.000349123
0.000633233
-0.00065569
0.00109357
-0.000711674
0.00151411
-0.000644659
0.00186953
-0.000540243
0.00216441
-0.000446558
0.00241631
-0.000385011
0.00264604
-0.000360981
0.00287241
-0.000371807
0.00310974
-0.00041138
0.00336599
-0.000471472
0.00363994
-0.000539861
0.00391578
-0.00059512
0.00415335
-0.000598187
0.00427475
-0.000481905
0.00415418
-0.000143932
0.00364247
0.000542025
0.00256371
0.0016255
0.00105496
0.00281286
0.00266126
0.000277261
-0.000626318
0.000773409
-0.00115165
0.00129718
-0.00123518
0.00176057
-0.00110774
0.00213984
-0.000919192
0.00244289
-0.000749274
0.00268889
-0.000630671
0.00289761
-0.000569377
0.00308475
-0.000558611
0.0032601
-0.000586401
0.0034266
-0.000637638
0.00357815
-0.000691072
0.00369496
-0.000711576
0.00373608
-0.000638956
0.00363238
-0.000377846
0.00328935
0.000199447
0.00262765
0.00120406
0.00164904
0.00260443
0.000581547
0.00388061
0.00324294
0.000295336
-0.000921562
0.000794083
-0.00165015
0.0012875
-0.00172824
0.00169426
-0.00151409
0.00200247
-0.00122697
0.00222888
-0.000975241
0.00239634
-0.000797699
0.00252408
-0.00069669
0.00262506
-0.000659169
0.00270642
-0.000667339
0.00277015
-0.00070094
0.0028121
-0.000732584
0.00281823
-0.000717272
0.00275866
-0.000578942
0.00258365
-0.000202391
0.00223208
0.000551447
0.00167169
0.00176487
0.000952374
0.00332412
0.000279056
0.00455424
0.00352214
0.000281762
-0.00120321
0.000713603
-0.00208169
0.00109628
-0.00211049
0.00137162
-0.00178893
0.00154808
-0.00140293
0.00165349
-0.00108014
0.00171325
-0.000856956
0.00174433
-0.000727281
0.00175634
-0.000670695
0.00175437
-0.00066488
0.00174067
-0.000686745
0.00171384
-0.000705258
0.00166555
-0.000668476
0.00157626
-0.000489132
0.00141312
-3.87328e-05
0.00114018
0.000824889
0.000757705
0.00214782
0.00033869
0.00374357
4.18966e-05
0.00485137
0.00356418
0.000225472
-0.00142856
0.000504504
-0.00236037
0.00068658
-0.00229209
0.000758061
-0.00185987
0.000754644
-0.00139896
0.000711677
-0.00103663
0.000651264
-0.000796008
0.000584005
-0.000659496
0.00051441
-0.000600577
0.00044479
-0.000594735
0.000376005
-0.00061743
0.000305654
-0.000634368
0.000225748
-0.000588017
0.000123082
-0.0003859
-1.35114e-05
9.84413e-05
-0.000170435
0.000982378
-0.000307909
0.00228583
-0.000346757
0.00378288
-0.000215358
0.00472032
0.00334896
9.80982e-05
-0.00152651
9.89904e-05
-0.00236087
-3.11413e-05
-0.00216143
-0.000234703
-0.00165575
-0.000456314
-0.00117678
-0.000665583
-0.000826804
-0.000852868
-0.000608181
-0.0010187
-0.000493127
-0.00116632
-0.000452418
-0.00129899
-0.000461534
-0.00142033
-0.000495552
-0.0015351
-0.000519055
-0.0016471
-0.000475462
-0.00175143
-0.000280996
-0.00181892
0.000166498
-0.00178676
0.00095078
-0.00157702
0.00207662
-0.00113061
0.00333692
-0.000493986
0.00408403
0.00285511
-0.000148955
-0.00137739
-0.000575392
-0.00193401
-0.00111405
-0.00162223
-0.00163044
-0.00113879
-0.00206914
-0.000737522
-0.00242432
-0.000471083
-0.00271082
-0.000321156
-0.00294772
-0.000255705
-0.00315179
-0.000247825
-0.00333592
-0.000276903
-0.00350843
-0.000322528
-0.00367025
-0.00035673
-0.0038079
-0.000337305
-0.00388303
-0.000205352
-0.00382401
0.000107997
-0.00353287
0.000660136
-0.00291735
0.00146158
-0.00194916
0.00236914
-0.000787963
0.00292315
0.00206728
-0.000529298
-0.000847898
-0.00147157
-0.000991291
-0.00237949
-0.000713768
-0.00309049
-0.000427243
-0.00360033
-0.000227153
-0.00395747
-0.000113432
-0.00421619
-6.19459e-05
-0.00442115
-5.02725e-05
-0.0046047
-6.38139e-05
-0.00478795
-9.32078e-05
-0.00498039
-0.000129648
-0.00517536
-0.000161333
-0.00534163
-0.000170618
-0.00541426
-0.000132306
-0.00529617
-9.68939e-06
-0.00485336
0.000217727
-0.00397121
0.000579818
-0.002624
0.00102227
-0.0010396
0.00133901
0.00102778
-0.000847693
-0.00183853
-0.00255177
-0.00297848
-0.00320514
-0.0033181
-0.00337961
-0.00342946
-0.00349288
-0.00358571
-0.00371499
-0.00387598
-0.00404627
-0.00417826
-0.00418765
-0.00396963
-0.00338955
-0.00236705
-0.00102786
)
;

boundaryField
{
    leftWall
    {
        type            calculated;
        value           nonuniform List<scalar> 10(0 0 1.35525e-20 0 0 0 -2.1684e-19 0 0 0);
    }
    rightWall
    {
        type            calculated;
        value           nonuniform List<scalar> 10(0 -2.1684e-19 -4.33681e-19 0 0 0 0 0 0 0);
    }
    topWall
    {
        type            calculated;
        value           uniform 0;
    }
    bottomWall
    {
        type            calculated;
        value           uniform 0;
    }
    frontAndBackPlanes
    {
        type            empty;
    }
}


// ************************************************************************* //
