/*--------------------------------*- C++ -*----------------------------------*\
| =========                 |                                                 |
| \\      /  F ield         | OpenFOAM: The Open Source CFD Toolbox           |
|  \\    /   O peration     | Version:  2506                                  |
|   \\  /    A nd           | Website:  www.openfoam.com                      |
|    \\/     M anipulation  |                                                 |
\*---------------------------------------------------------------------------*/
FoamFile
{
    version     2.0;
    format      ascii;
    arch        "LSB;label=32;scalar=64";
    class       surfaceScalarField;
    location    "114.4";
    object      phi;
}
// * * * * * * * * * * * * * * * * * * * * * * * * * * * * * * * * * * * * * //

dimensions      [1 0 -1 0 0 0 0];

oriented        oriented;

internalField   nonuniform List<scalar> 
370
(
0.000303423
-0.000340693
0.000809231
-0.000505743
0.00125014
-0.000440819
0.0015557
-0.000305436
0.00173391
-0.000178087
0.00182325
-8.91932e-05
0.00186654
-4.31371e-05
0.00189948
-3.27745e-05
0.00194807
-4.84199e-05
0.00202982
-8.15751e-05
0.00215585
-0.000125838
0.00233249
-0.00017645
0.00256039
-0.000227703
0.00282838
-0.000267788
0.0030997
-0.000271111
0.00328636
-0.000186453
0.00321442
7.21612e-05
0.00267028
0.000544353
0.00145042
0.00122004
0.00145052
0.000428395
-0.000769055
0.00115023
-0.00122748
0.0018417
-0.00113216
0.00237797
-0.000841562
0.00274525
-0.000545205
0.00297833
-0.000322096
0.00312529
-0.00018992
0.00323021
-0.000137517
0.00332603
-0.000144054
0.00343339
-0.000188752
0.00356188
-0.000254133
0.00371016
-0.000324532
0.00386316
-0.000380502
0.00398495
-0.000389373
0.00400712
-0.000293074
0.00382381
-2.93319e-06
0.00329319
0.000603003
0.00228214
0.00155561
0.000922435
0.00257994
0.00237305
0.000418264
-0.00118728
0.00110153
-0.00191064
0.00175285
-0.00178331
0.00226231
-0.00135082
0.00262004
-0.000902732
0.00285701
-0.000558857
0.00301288
-0.000345579
0.0031216
-0.00024603
0.00320679
-0.00022904
0.00328164
-0.000263383
0.00334982
-0.000322106
0.00340539
-0.000379889
0.00342996
-0.000404852
0.0033875
-0.000346692
0.00322015
-0.000125506
0.00285028
0.000367173
0.00222827
0.00122524
0.00136327
0.00242083
0.000461273
0.00348212
0.00283441
0.000362328
-0.00154955
0.000917421
-0.00246559
0.00141214
-0.00227784
0.00177359
-0.00171205
0.00201227
-0.00114118
0.00216354
-0.000709889
0.00226055
-0.000442354
0.00232581
-0.000311055
0.00237149
-0.000274497
0.00240249
-0.000294147
0.00241864
-0.000338025
0.00241455
-0.000375574
0.00237666
-0.000366726
0.00227894
-0.000248746
0.00208233
7.13511e-05
0.0017487
0.00070104
0.00126294
0.00171124
0.000679238
0.00300475
0.000172998
0.00398854
0.00300749
0.000283099
-0.00183259
0.000656987
-0.00283933
0.000935298
-0.00255594
0.00109692
-0.00187343
0.00117756
-0.00122158
0.00121586
-0.000747938
0.00123576
-0.000462011
0.00124695
-0.000322011
0.00125103
-0.00027834
0.00124688
-0.000289758
0.00123298
-0.000323886
0.0012061
-0.000348459
0.00115769
-0.00031808
0.00107068
-0.000161499
0.000921169
0.000221106
0.000693977
0.000928479
0.000401586
0.00200388
0.000115874
0.0032907
-3.75981e-05
0.0041422
0.00296996
0.000177488
-0.00201002
0.000313554
-0.00297523
0.00032687
-0.00256903
0.000261365
-0.00180768
0.00017365
-0.00113361
9.55182e-05
-0.000669562
3.50779e-05
-0.000401331
-1.16217e-05
-0.000275077
-5.0861e-05
-0.000238868
-8.68548e-05
-0.000253532
-0.000121994
-0.000288515
-0.000159508
-0.000310712
-0.000205813
-0.00027154
-0.000269587
-9.74851e-05
-0.000353589
0.000305356
-0.000444756
0.0010199
-0.000500368
0.00205974
-0.000448576
0.00323913
-0.000240575
0.00393437
0.00272945
7.1109e-06
-0.00201707
-0.000170947
-0.00279699
-0.000473544
-0.00226621
-0.000787719
-0.00149327
-0.00105033
-0.000870768
-0.0012481
-0.000471556
-0.00139253
-0.00025667
-0.00150029
-0.000167087
-0.00158452
-0.000154412
-0.00165347
-0.00018436
-0.00171242
-0.000229343
-0.00176518
-0.000257725
-0.0018125
-0.00022399
-0.00184626
-6.34999e-05
-0.00183806
0.000297396
-0.00174172
0.000923794
-0.00149445
0.0018127
-0.00104714
0.00279202
-0.000447258
0.00333464
0.00228226
-0.000259698
-0.00175729
-0.000868293
-0.00218822
-0.00153482
-0.00159946
-0.00209448
-0.000933379
-0.00250631
-0.000458706
-0.00279101
-0.000186629
-0.0029857
-6.1761e-05
-0.00312324
-2.93353e-05
-0.00322786
-4.95811e-05
-0.00331545
-9.6557e-05
-0.00339431
-0.000150272
-0.00346403
-0.0001878
-0.00351114
-0.000176678
-0.00350187
-7.25608e-05
-0.00337963
0.000175368
-0.00306947
0.000613839
-0.00249959
0.00124302
-0.00165028
0.00194289
-0.000659246
0.00234374
0.00162307
-0.000679475
-0.00107774
-0.00178612
-0.00108139
-0.00273919
-0.000646161
-0.00338843
-0.000283911
-0.00377514
-7.17719e-05
-0.00398844
2.68768e-05
-0.00410769
5.76956e-05
-0.00418287
4.60487e-05
-0.00424677
1.45065e-05
-0.0043192
-2.39358e-05
-0.00440575
-6.35443e-05
-0.00449823
-9.51488e-05
-0.00456931
-0.000105433
-0.00456597
-7.57284e-05
-0.00441081
2.03675e-05
-0.00399848
0.000201665
-0.00324018
0.000484875
-0.00212102
0.000823866
-0.000832014
0.00105484
0.000791096
-0.00107765
-0.00215885
-0.0028048
-0.00308849
-0.00316005
-0.00313297
-0.00307508
-0.00302885
-0.00301417
-0.00303795
-0.00310134
-0.00319634
-0.00330164
-0.00337724
-0.00335675
-0.00315497
-0.00266999
-0.00184603
-0.000791126
)
;

boundaryField
{
    leftWall
    {
        type            calculated;
        value           nonuniform List<scalar> 10(0 0 0 0 0 0 -4.33681e-19 0 0 8.67362e-19);
    }
    rightWall
    {
        type            calculated;
        value           nonuniform List<scalar> 10(0 0 0 0 0 -4.33681e-19 0 4.33681e-19 0 0);
    }
    topWall
    {
        type            calculated;
        value           uniform 0;
    }
    bottomWall
    {
        type            calculated;
        value           uniform 0;
    }
    frontAndBackPlanes
    {
        type            empty;
    }
}


// ************************************************************************* //
