/*--------------------------------*- C++ -*----------------------------------*\
| =========                 |                                                 |
| \\      /  F ield         | OpenFOAM: The Open Source CFD Toolbox           |
|  \\    /   O peration     | Version:  2506                                  |
|   \\  /    A nd           | Website:  www.openfoam.com                      |
|    \\/     M anipulation  |                                                 |
\*---------------------------------------------------------------------------*/
FoamFile
{
    version     2.0;
    format      ascii;
    arch        "LSB;label=32;scalar=64";
    class       volScalarField;
    location    "100.6";
    object      p_rgh;
}
// * * * * * * * * * * * * * * * * * * * * * * * * * * * * * * * * * * * * * //

dimensions      [1 -1 -2 0 0 0 0];

internalField   nonuniform List<scalar> 
200
(
100000
100000
100000
99999.9
99999.9
99999.8
99999.8
99999.7
99999.7
99999.7
99999.6
99999.6
99999.5
99999.5
99999.4
99999.3
99999.1
99998.9
99998.5
99997.9
100000
100000
99999.9
99999.8
99999.7
99999.7
99999.7
99999.6
99999.6
99999.6
99999.5
99999.5
99999.5
99999.4
99999.4
99999.3
99999.2
99998.9
99998.2
99996.8
100000
99999.9
99999.7
99999.5
99999.4
99999.3
99999.3
99999.3
99999.3
99999.3
99999.3
99999.2
99999.2
99999.2
99999.2
99999.2
99999
99998.6
99997.5
99995.3
100001
99999.8
99999.3
99999
99998.8
99998.8
99998.8
99998.8
99998.8
99998.8
99998.8
99998.8
99998.8
99998.9
99998.9
99998.9
99998.8
99998.1
99996.6
99993.6
100001
99999.7
99998.8
99998.3
99998.1
99998.1
99998.1
99998.1
99998.2
99998.2
99998.2
99998.3
99998.3
99998.4
99998.5
99998.6
99998.3
99997.4
99995.4
99991.9
100001
99999.6
99998.3
99997.6
99997.3
99997.2
99997.3
99997.3
99997.4
99997.4
99997.5
99997.5
99997.6
99997.8
99997.9
99997.9
99997.5
99996.4
99994
99990.2
100002
99999.3
99997.5
99996.7
99996.4
99996.3
99996.3
99996.3
99996.3
99996.3
99996.4
99996.4
99996.5
99996.6
99996.7
99996.6
99996.2
99994.9
99992.5
99988.6
100002
99998.9
99996.7
99995.7
99995.3
99995.1
99995
99994.9
99994.8
99994.8
99994.7
99994.7
99994.7
99994.7
99994.7
99994.6
99994.1
99993
99990.7
99987.1
100003
99998.4
99995.8
99994.6
99994
99993.7
99993.4
99993.2
99993
99992.8
99992.6
99992.4
99992.3
99992.2
99992.1
99991.9
99991.4
99990.5
99988.7
99985.8
100003
99998.1
99995.3
99994
99993.2
99992.8
99992.5
99992.1
99991.8
99991.5
99991.2
99990.8
99990.5
99990.2
99989.8
99989.4
99989
99988.2
99986.8
99984.7
)
;

boundaryField
{
    leftWall
    {
        type            fixedFluxPressure;
        gradient        nonuniform List<scalar> 10(0.609963 3.16979 8.48264 16.7364 27.9113 42.2496 60.632 85.985 116.993 145.966);
        value           nonuniform List<scalar> 10(100000 100000 100001 100001 100002 100003 100004 100005 100006 100007);
    }
    rightWall
    {
        type            fixedFluxPressure;
        gradient        nonuniform List<scalar> 10(-15.2413 -41.5928 -60.9302 -74.5304 -83.3239 -89.3432 -90.7965 -85.4829 -71.4162 -52.5837);
        value           nonuniform List<scalar> 10(99997.5 99995.8 99993.8 99991.7 99989.8 99988 99986.3 99985 99984 99983.4);
    }
    topWall
    {
        type            fixedFluxPressure;
        gradient        uniform 0;
        value           nonuniform List<scalar> 
20
(
100000
100000
100000
99999.9
99999.9
99999.8
99999.8
99999.7
99999.7
99999.7
99999.6
99999.6
99999.5
99999.5
99999.4
99999.3
99999.1
99998.9
99998.5
99997.9
)
;
    }
    bottomWall
    {
        type            fixedFluxPressure;
        gradient        uniform 0;
        value           nonuniform List<scalar> 
20
(
100003
99998.1
99995.3
99994
99993.2
99992.8
99992.5
99992.1
99991.8
99991.5
99991.2
99990.8
99990.5
99990.2
99989.8
99989.4
99989
99988.2
99986.8
99984.7
)
;
    }
    frontAndBackPlanes
    {
        type            empty;
    }
}


// ************************************************************************* //
