/*--------------------------------*- C++ -*----------------------------------*\
| =========                 |                                                 |
| \\      /  F ield         | OpenFOAM: The Open Source CFD Toolbox           |
|  \\    /   O peration     | Version:  2506                                  |
|   \\  /    A nd           | Website:  www.openfoam.com                      |
|    \\/     M anipulation  |                                                 |
\*---------------------------------------------------------------------------*/
FoamFile
{
    version     2.0;
    format      ascii;
    arch        "LSB;label=32;scalar=64";
    class       surfaceScalarField;
    location    "107";
    object      phi;
}
// * * * * * * * * * * * * * * * * * * * * * * * * * * * * * * * * * * * * * //

dimensions      [1 0 -1 0 0 0 0];

oriented        oriented;

internalField   nonuniform List<scalar> 
370
(
0.000276424
-0.000317308
0.000752234
-0.000475739
0.0011714
-0.000419065
0.0014665
-0.00029497
0.00164358
-0.000176941
0.00173792
-9.41804e-05
0.00178951
-5.1426e-05
0.00183214
-4.246e-05
0.00189074
-5.8414e-05
0.0019823
-9.13741e-05
0.00211795
-0.000135449
0.00230428
-0.000186133
0.00254225
-0.000237763
0.00282088
-0.000278411
0.00310328
-0.000282187
0.00330098
-0.000197479
0.00323685
6.43578e-05
0.00269581
0.000541267
0.00146842
0.00122759
0.00146852
0.000406699
-0.00072397
0.00109701
-0.00116595
0.00176369
-0.00108561
0.0022863
-0.000817414
0.00265007
-0.000540537
0.00288705
-0.000330969
0.00304249
-0.000206684
0.00315824
-0.000158012
0.00326579
-0.000165766
0.00338514
-0.000210523
0.00352565
-0.000275751
0.00368602
-0.000346297
0.00385129
-0.00040281
0.00398543
-0.000412338
0.00401956
-0.00031609
0.00384426
-2.19549e-05
0.00331989
0.000588966
0.00230606
0.00155532
0.000934297
0.00259955
0.00240292
0.000405505
-0.00112943
0.00107156
-0.00183188
0.00171082
-0.00172468
0.00221531
-0.0013217
0.00257394
-0.000898946
0.00281565
-0.000572449
0.00297833
-0.000369144
0.00309476
-0.000274215
0.0031879
-0.000258671
0.00327064
-0.000293036
0.00334665
-0.000351531
0.00341002
-0.000409437
0.00344239
-0.000434938
0.00340751
-0.000377219
0.0032468
-0.000155136
0.00288231
0.000342784
0.00225873
0.00121279
0.00138572
0.00242856
0.00047073
0.00351474
0.00287374
0.000357654
-0.00148703
0.000909841
-0.00238391
0.0014063
-0.00222093
0.00177296
-0.00168811
0.00201821
-0.00114394
0.00217582
-0.000729809
0.00227821
-0.000471275
0.00234776
-0.000343514
0.00239689
-0.000307546
0.00243079
-0.000326685
0.0024496
-0.000370093
0.00244815
-0.000407735
0.00241294
-0.000399466
0.00231765
-0.000281677
0.00212234
4.04344e-05
0.00178702
0.000678368
0.00129524
0.00170483
0.00070063
0.00302342
0.000180947
0.00403463
0.00305478
0.000284963
-0.00177193
0.000667359
-0.00276614
0.000957825
-0.00251117
0.00113143
-0.00186145
0.00122152
-0.00123375
0.00126591
-0.000773932
0.0012889
-0.00049399
0.00130098
-0.000355331
0.00130456
-0.00031087
0.00129921
-0.000321068
0.00128382
-0.00035445
0.00125543
-0.000379084
0.00120555
-0.000349326
0.00111684
-0.000192701
0.000964284
0.00019326
0.000732011
0.000910913
0.000431152
0.00200596
0.00013377
0.00332105
-3.13849e-05
0.00419998
0.00302347
0.000183503
-0.00195536
0.000335902
-0.00291836
0.000366749
-0.00254177
0.000314938
-0.00180937
0.000235512
-0.00115405
0.000160894
-0.000699043
0.000100583
-0.000433415
5.19396e-05
-0.000306427
9.61659e-06
-0.000268289
-3.00075e-05
-0.000281188
-6.8971e-05
-0.000315231
-0.000110366
-0.000337432
-0.000160725
-0.000298707
-0.000229104
-0.000124055
-0.000319027
0.000283457
-0.000417674
0.00100984
-0.000482253
0.00207081
-0.000439835
0.00327888
-0.000239076
0.00399941
0.00278447
1.75324e-05
-0.00197282
-0.000143034
-0.0027576
-0.000428914
-0.00225564
-0.000732236
-0.00150579
-0.000990302
-0.000895723
-0.00118821
-0.000500878
-0.00133561
-0.000285759
-0.00144786
-0.000193929
-0.00153724
-0.000178652
-0.0016116
-0.000206585
-0.00167605
-0.000250536
-0.00173447
-0.000278761
-0.00178794
-0.000244982
-0.00182866
-8.30774e-05
-0.00182833
0.000283387
-0.00173959
0.000921364
-0.00149817
0.00182964
-0.0010533
0.00283424
-0.000451443
0.00339773
0.0023331
-0.000249366
-0.00172338
-0.000840963
-0.0021658
-0.00149531
-0.00160104
-0.00205023
-0.000950607
-0.00246335
-0.000482348
-0.00275291
-0.000211076
-0.00295452
-8.38994e-05
-0.00309982
-4.83953e-05
-0.00321229
-6.59457e-05
-0.00330765
-0.000110995
-0.00339413
-0.00016382
-0.00347151
-0.000201151
-0.00352647
-0.00018979
-0.00352514
-8.41848e-05
-0.00340969
0.000168168
-0.00310336
0.000615268
-0.00253223
0.00125874
-0.00167504
0.00197725
-0.0006705
0.00239333
0.00166266
-0.000666011
-0.00105727
-0.00175805
-0.00107356
-0.002707
-0.000651833
-0.00336139
-0.000295967
-0.00375905
-8.44435e-05
-0.00398261
1.27286e-05
-0.0041136
4.73156e-05
-0.00419959
3.78097e-05
-0.00427283
7.51528e-06
-0.00435425
-2.93789e-05
-0.00444921
-6.86594e-05
-0.0045499
-0.000100268
-0.00462889
-0.000110615
-0.00463238
-8.05038e-05
-0.00448158
1.7547e-05
-0.00406839
0.000202251
-0.00330152
0.000492036
-0.00216436
0.000840239
-0.000850386
0.00107948
0.000812321
-0.00105717
-0.00213052
-0.00278211
-0.00307784
-0.00316204
-0.00314909
-0.00310156
-0.00306355
-0.00305584
-0.00308504
-0.00315353
-0.00325364
-0.0033641
-0.00344446
-0.00342678
-0.00322441
-0.00273225
-0.00189191
-0.000812354
)
;

boundaryField
{
    leftWall
    {
        type            calculated;
        value           nonuniform List<scalar> 10(-3.38813e-21 0 0 0 0 0 0 0 0 8.67362e-19);
    }
    rightWall
    {
        type            calculated;
        value           nonuniform List<scalar> 10(0 -2.1684e-19 0 -4.33681e-19 4.33681e-19 4.33681e-19 0 0 -4.33681e-19 0);
    }
    topWall
    {
        type            calculated;
        value           uniform 0;
    }
    bottomWall
    {
        type            calculated;
        value           uniform 0;
    }
    frontAndBackPlanes
    {
        type            empty;
    }
}


// ************************************************************************* //
