/*--------------------------------*- C++ -*----------------------------------*\
| =========                 |                                                 |
| \\      /  F ield         | OpenFOAM: The Open Source CFD Toolbox           |
|  \\    /   O peration     | Version:  2506                                  |
|   \\  /    A nd           | Website:  www.openfoam.com                      |
|    \\/     M anipulation  |                                                 |
\*---------------------------------------------------------------------------*/
FoamFile
{
    version     2.0;
    format      ascii;
    arch        "LSB;label=32;scalar=64";
    class       volVectorField;
    location    "107";
    object      U;
}
// * * * * * * * * * * * * * * * * * * * * * * * * * * * * * * * * * * * * * //

dimensions      [0 1 -1 0 0 0 0];

internalField   nonuniform List<vector> 
200
(
(0.000394699 -0.00106977 0)
(0.00213305 -0.0013808 0)
(0.00403649 -0.00103269 0)
(0.00558635 -0.000577907 0)
(0.00657244 -0.000224732 0)
(0.00711187 -2.16307e-05 0)
(0.00738456 4.65001e-05 0)
(0.00755427 1.51413e-05 0)
(0.00774577 -8.19474e-05 0)
(0.00804586 -0.000222225 0)
(0.00851226 -0.00039589 0)
(0.00918261 -0.000601615 0)
(0.0100772 -0.000836796 0)
(0.0111864 -0.00108016 0)
(0.0124274 -0.00126129 0)
(0.0135463 -0.00120659 0)
(0.0139718 -0.000555849 0)
(0.0128073 0.00122807 0)
(0.00914888 0.00422466 0)
(0.00275271 0.00584214 0)
(0.000479632 -0.00432062 0)
(0.0031093 -0.00679231 0)
(0.00602557 -0.00617965 0)
(0.00857116 -0.00451298 0)
(0.0104303 -0.0028492 0)
(0.0116548 -0.00163222 0)
(0.0124328 -0.000958162 0)
(0.012962 -0.000759256 0)
(0.0134014 -0.000914953 0)
(0.0138594 -0.00130943 0)
(0.0143972 -0.00185088 0)
(0.0150329 -0.00246152 0)
(0.0157369 -0.00304094 0)
(0.016411 -0.00340095 0)
(0.016849 -0.00317119 0)
(0.0166853 -0.00169359 0)
(0.0153273 0.00198743 0)
(0.0121238 0.00856651 0)
(0.0070412 0.0165353 0)
(0.0011984 0.016771 0)
(0.000476351 -0.00777872 0)
(0.0030677 -0.01264 0)
(0.00586615 -0.0119136 0)
(0.00831042 -0.00911855 0)
(0.010122 -0.00617123 0)
(0.0113511 -0.00389535 0)
(0.0121613 -0.00249581 0)
(0.0127145 -0.0018804 0)
(0.013132 -0.00185069 0)
(0.0134892 -0.00219994 0)
(0.0138205 -0.00274612 0)
(0.0141225 -0.00331615 0)
(0.0143483 -0.0036888 0)
(0.0143897 -0.00350258 0)
(0.0140509 -0.00214982 0)
(0.0130127 0.00126884 0)
(0.010971 0.007649 0)
(0.00777445 0.0170652 0)
(0.00385151 0.0262306 0)
(0.000445124 0.0225941 0)
(0.000433069 -0.0110147 0)
(0.00266555 -0.0178657 0)
(0.00490647 -0.01683 0)
(0.00674384 -0.012928 0)
(0.00802038 -0.00884121 0)
(0.00883743 -0.00567955 0)
(0.00935333 -0.00368779 0)
(0.00969246 -0.00271328 0)
(0.00992887 -0.00247378 0)
(0.0100978 -0.00268737 0)
(0.0102093 -0.00310934 0)
(0.0102542 -0.00350264 0)
(0.0101966 -0.00355876 0)
(0.00995667 -0.00279013 0)
(0.00939109 -0.0004451 0)
(0.00830129 0.00442125 0)
(0.00656199 0.0125239 0)
(0.00419821 0.0233245 0)
(0.00168603 0.0322208 0)
(7.19119e-05 0.0252348 0)
(0.000371364 -0.0137394 0)
(0.00205342 -0.0218634 0)
(0.00347694 -0.0202218 0)
(0.00444955 -0.0152679 0)
(0.00498354 -0.0102946 0)
(0.00524006 -0.00655182 0)
(0.00536203 -0.00422502 0)
(0.00542553 -0.00305757 0)
(0.00545471 -0.00268598 0)
(0.00545046 -0.00278378 0)
(0.00540875 -0.00308369 0)
(0.00532271 -0.00332194 0)
(0.0051714 -0.00313474 0)
(0.00490213 -0.00194391 0)
(0.00440932 0.00109097 0)
(0.00360692 0.00687423 0)
(0.00246329 0.0159187 0)
(0.00112919 0.0271302 0)
(1.69372e-05 0.0351174 0)
(-0.000172329 0.0258257 0)
(0.000284393 -0.0157585 0)
(0.00119524 -0.0242285 0)
(0.0015506 -0.021693 0)
(0.00147176 -0.0158579 0)
(0.00116704 -0.010371 0)
(0.000826027 -0.006429 0)
(0.00053785 -0.00406336 0)
(0.000311648 -0.00289848 0)
(0.000124913 -0.00251816 0)
(-4.36839e-05 -0.00259051 0)
(-0.00020551 -0.00285448 0)
(-0.000370128 -0.00303407 0)
(-0.000557411 -0.00272248 0)
(-0.000801816 -0.00128224 0)
(-0.0011472 0.00214805 0)
(-0.00156699 0.00836902 0)
(-0.00194373 0.0176089 0)
(-0.00202951 0.0283416 0)
(-0.00155986 0.0350348 0)
(-0.00036525 0.0247104 0)
(0.000153773 -0.0166957 0)
(-8.37309e-05 -0.0243735 0)
(-0.00114058 -0.0207415 0)
(-0.0024483 -0.0144024 0)
(-0.00365277 -0.00894789 0)
(-0.00460907 -0.0052692 0)
(-0.00532102 -0.00317643 0)
(-0.00585139 -0.00220996 0)
(-0.00626296 -0.00195491 0)
(-0.00659874 -0.002106 0)
(-0.00688548 -0.00241711 0)
(-0.00714339 -0.00260538 0)
(-0.0073876 -0.00225334 0)
(-0.00760963 -0.000751825 0)
(-0.00773764 0.0026455 0)
(-0.00759435 0.00856048 0)
(-0.00692435 0.0170123 0)
(-0.00547412 0.0264156 0)
(-0.00325769 0.0317513 0)
(-0.000596455 0.0218363 0)
(-0.000171642 -0.0158517 0)
(-0.00215891 -0.0213283 0)
(-0.0049199 -0.0167836 0)
(-0.00753698 -0.0106942 0)
(-0.00957687 -0.00598342 0)
(-0.0110234 -0.00307036 0)
(-0.0120191 -0.00157294 0)
(-0.0127182 -0.00101526 0)
(-0.0132391 -0.00102529 0)
(-0.0136635 -0.00134308 0)
(-0.0140425 -0.00175783 0)
(-0.0143964 -0.00202249 0)
(-0.0147044 -0.00178663 0)
(-0.0148749 -0.000571767 0)
(-0.0146977 0.00217515 0)
(-0.0138685 0.00691111 0)
(-0.0120339 0.0135977 0)
(-0.00897759 0.0209348 0)
(-0.00499203 0.0249882 0)
(-0.000844678 0.0171058 0)
(-0.000800398 -0.0121057 0)
(-0.00513367 -0.0142064 0)
(-0.00953855 -0.00965267 0)
(-0.0129507 -0.00501656 0)
(-0.0151188 -0.00195959 0)
(-0.0163514 -0.000380014 0)
(-0.0170326 0.000204441 0)
(-0.0174454 0.000213624 0)
(-0.0177569 -8.37808e-05 0)
(-0.0180714 -0.000526034 0)
(-0.0184447 -0.0009899 0)
(-0.0188766 -0.00133515 0)
(-0.0192995 -0.00136226 0)
(-0.0195516 -0.000794799 0)
(-0.019338 0.000705399 0)
(-0.0182251 0.00346922 0)
(-0.0157526 0.00753936 0)
(-0.0116676 0.0121804 0)
(-0.00640591 0.0150161 0)
(-0.00108538 0.0106155 0)
(-0.0019348 -0.00413333 0)
(-0.00690318 -0.00368621 0)
(-0.0105338 -0.00176999 0)
(-0.0125125 -0.000390549 0)
(-0.0132339 0.000279346 0)
(-0.0133027 0.000488961 0)
(-0.0131232 0.00046002 0)
(-0.0129154 0.000334341 0)
(-0.0128047 0.000174291 0)
(-0.0128467 5.83011e-07 0)
(-0.0130582 -0.000174541 0)
(-0.01343 -0.000337085 0)
(-0.0139071 -0.000459451 0)
(-0.0143633 -0.000489486 0)
(-0.0145685 -0.000338376 0)
(-0.0141796 0.000133455 0)
(-0.0127374 0.00104477 0)
(-0.00986757 0.00234438 0)
(-0.00578062 0.00349217 0)
(-0.00137697 0.00295793 0)
)
;

boundaryField
{
    leftWall
    {
        type            fixedValue;
        value           uniform (0 0 0);
    }
    rightWall
    {
        type            fixedValue;
        value           uniform (0 0 0);
    }
    topWall
    {
        type            fixedValue;
        value           uniform (0 0 0);
    }
    bottomWall
    {
        type            fixedValue;
        value           uniform (0 0 0);
    }
    frontAndBackPlanes
    {
        type            empty;
    }
}


// ************************************************************************* //
