/*--------------------------------*- C++ -*----------------------------------*\
| =========                 |                                                 |
| \\      /  F ield         | OpenFOAM: The Open Source CFD Toolbox           |
|  \\    /   O peration     | Version:  2506                                  |
|   \\  /    A nd           | Website:  www.openfoam.com                      |
|    \\/     M anipulation  |                                                 |
\*---------------------------------------------------------------------------*/
FoamFile
{
    version     2.0;
    format      ascii;
    arch        "LSB;label=32;scalar=64";
    class       volScalarField;
    location    "78";
    object      T;
}
// * * * * * * * * * * * * * * * * * * * * * * * * * * * * * * * * * * * * * //

dimensions      [0 0 0 1 0 0 0];

internalField   nonuniform List<scalar> 
200
(
273.156
273.167
273.175
273.181
273.184
273.186
273.188
273.189
273.19
273.191
273.192
273.194
273.196
273.199
273.202
273.211
273.234
273.296
273.457
273.821
273.162
273.184
273.2
273.209
273.215
273.217
273.218
273.219
273.219
273.22
273.221
273.223
273.224
273.225
273.226
273.231
273.25
273.311
273.479
273.849
273.171
273.21
273.238
273.255
273.264
273.267
273.268
273.267
273.267
273.266
273.266
273.266
273.266
273.264
273.261
273.263
273.281
273.346
273.522
273.883
273.182
273.24
273.282
273.307
273.32
273.324
273.324
273.322
273.32
273.318
273.316
273.314
273.31
273.304
273.298
273.297
273.316
273.387
273.569
273.914
273.194
273.273
273.33
273.363
273.378
273.382
273.381
273.378
273.374
273.371
273.368
273.364
273.357
273.347
273.336
273.334
273.356
273.435
273.62
273.943
273.206
273.308
273.379
273.419
273.436
273.44
273.438
273.434
273.431
273.429
273.425
273.42
273.411
273.398
273.387
273.388
273.417
273.501
273.679
273.968
273.22
273.345
273.431
273.475
273.493
273.498
273.498
273.497
273.497
273.497
273.496
273.492
273.485
273.476
273.47
273.476
273.508
273.587
273.744
273.992
273.237
273.387
273.481
273.529
273.551
273.561
273.568
273.574
273.58
273.586
273.59
273.591
273.591
273.59
273.59
273.598
273.627
273.693
273.819
274.02
273.257
273.425
273.527
273.581
273.61
273.63
273.645
273.659
273.672
273.684
273.696
273.706
273.715
273.723
273.731
273.743
273.767
273.816
273.906
274.052
273.27
273.445
273.549
273.607
273.642
273.667
273.688
273.707
273.725
273.744
273.762
273.781
273.8
273.819
273.839
273.86
273.887
273.927
273.989
274.084
)
;

boundaryField
{
    leftWall
    {
        type            fixedValue;
        value           uniform 273.15;
    }
    rightWall
    {
        type            customNeumannDirichletCoupledBoundary;
        refValue        nonuniform List<scalar> 10(274.127 274.129 274.131 274.133 274.135 274.136 274.138 274.14 274.142 274.143);
        refGradient     uniform 0;
        valueFraction   uniform 1;
        source          uniform 0;
        value           nonuniform List<scalar> 10(274.127 274.129 274.131 274.133 274.135 274.136 274.138 274.14 274.142 274.143);
        kappaMethod     fluidThermo;
    }
    topWall
    {
        type            zeroGradient;
    }
    bottomWall
    {
        type            zeroGradient;
    }
    frontAndBackPlanes
    {
        type            empty;
    }
}


// ************************************************************************* //
