/*--------------------------------*- C++ -*----------------------------------*\
| =========                 |                                                 |
| \\      /  F ield         | OpenFOAM: The Open Source CFD Toolbox           |
|  \\    /   O peration     | Version:  2506                                  |
|   \\  /    A nd           | Website:  www.openfoam.com                      |
|    \\/     M anipulation  |                                                 |
\*---------------------------------------------------------------------------*/
FoamFile
{
    version     2.0;
    format      ascii;
    arch        "LSB;label=32;scalar=64";
    class       surfaceScalarField;
    location    "66.8";
    object      phi;
}
// * * * * * * * * * * * * * * * * * * * * * * * * * * * * * * * * * * * * * //

dimensions      [1 0 -1 0 0 0 0];

oriented        oriented;

internalField   nonuniform List<scalar> 
370
(
9.49598e-05
-0.000162072
0.000370383
-0.000275351
0.000648719
-0.000278229
0.000884039
-0.000235191
0.00106718
-0.000182996
0.00120921
-0.000141881
0.00132897
-0.000119594
0.00144593
-0.000116797
0.00157739
-0.000131298
0.00173795
-0.000160387
0.00193969
-0.000201565
0.00219163
-0.000251753
0.00249644
-0.000304614
0.00284288
-0.000346247
0.00319113
-0.000348045
0.00344723
-0.00025589
0.00341519
3.22448e-05
0.00287396
0.000541442
0.00158492
0.00128923
0.00158503
0.000249091
-0.000411119
0.00071484
-0.000740978
0.00121059
-0.0007738
0.00164767
-0.000672072
0.00200291
-0.000538008
0.002286
-0.000424745
0.00251958
-0.000352946
0.00272811
-0.000325091
0.00293244
-0.000335393
0.00314762
-0.00037533
0.00338167
-0.000435374
0.00363339
-0.000503222
0.00388751
-0.000558476
0.00410538
-0.000563862
0.00421162
-0.000454017
0.00408358
-0.000127584
0.00357447
0.000541619
0.0025122
0.00160397
0.00103159
0.00277006
0.00261674
0.00030328
-0.000714332
0.000833389
-0.0012709
0.00137986
-0.00132001
0.00185087
-0.00114278
0.00222536
-0.000912167
0.00251549
-0.000714547
0.00274419
-0.000581318
0.00293377
-0.000514338
0.0031012
-0.000502493
0.00325674
-0.000530545
0.00340339
-0.000581695
0.00353521
-0.000634704
0.0036331
-0.000656024
0.00365776
-0.000588178
0.00354283
-0.000338747
0.00319745
0.000218143
0.00254622
0.00119318
0.00159188
0.00255863
0.000557496
0.0038047
0.00317436
0.000310831
-0.00102508
0.000824845
-0.00178468
0.00132284
-0.00181767
0.00172423
-0.00154377
0.0020211
-0.00120862
0.00223374
-0.000926774
0.00238713
-0.000734294
0.0025013
-0.000628098
0.00258923
-0.000590015
0.00265775
-0.000598668
0.00270861
-0.000632152
0.00273771
-0.000663393
0.00273158
-0.000649486
0.00266168
-0.000517871
0.002481
-0.000157649
0.00213259
0.000566957
0.00158756
0.0017386
0.000895928
0.00325062
0.000256465
0.00444446
0.00343096
0.000286539
-0.00131151
0.000715114
-0.00221297
0.00108516
-0.00218732
0.00134415
-0.0018023
0.00150546
-0.00136947
0.00159907
-0.00101991
0.0016504
-0.000785153
0.00167538
-0.000652621
0.00168245
-0.00059664
0.00167588
-0.000591647
0.00165755
-0.000613372
0.00162611
-0.000631505
0.0015736
-0.000596519
0.00148112
-0.000424931
0.00131662
7.31903e-06
0.00105055
0.000833494
0.000684844
0.00210474
0.000292215
0.00364365
2.52703e-05
0.00471172
0.00345636
0.000220804
-0.0015322
0.000480975
-0.00247283
0.000637538
-0.00234345
0.000687535
-0.00185181
0.000670505
-0.00135194
0.00062147
-0.000970384
0.00056019
-0.000723387
0.000494797
-0.000586752
0.000428092
-0.000529465
0.000361548
-0.000524635
0.000295814
-0.00054717
0.000228605
-0.000563824
0.000152234
-0.000519668
5.41797e-05
-0.000326383
-7.47372e-05
0.000136744
-0.000221877
0.000981137
-0.000345959
0.0022293
-0.000368783
0.00366689
-0.000222481
0.00456573
0.00323401
8.47924e-05
-0.00161686
5.60222e-05
-0.00244371
-0.000102864
-0.00218409
-0.000325113
-0.00162905
-0.000553277
-0.00112327
-0.000759951
-0.000763215
-0.000939371
-0.000543486
-0.00109497
-0.000430679
-0.00123161
-0.000392357
-0.00135316
-0.000402622
-0.00146328
-0.000436579
-0.0015665
-0.000460136
-0.0016663
-0.000419387
-0.00175767
-0.000234529
-0.00181192
0.000191493
-0.00177031
0.000940012
-0.00155738
0.00201684
-0.00111425
0.00322417
-0.000485933
0.00393771
0.00274819
-0.000168803
-0.00144791
-0.000628749
-0.00198339
-0.00119125
-0.00162111
-0.00171559
-0.00110421
-0.00214902
-0.000689341
-0.00249059
-0.000421164
-0.00275926
-0.000274349
-0.00297673
-0.000212751
-0.00316104
-0.000207598
-0.00332542
-0.000237801
-0.00347818
-0.000283382
-0.00362021
-0.000317668
-0.00373856
-0.0003006
-0.00379655
-0.000176097
-0.00372619
0.000121576
-0.00343438
0.00064864
-0.002832
0.00141487
-0.00189061
0.00228314
-0.000763836
0.00281121
0.00198447
-0.000557546
-0.0008902
-0.00153174
-0.0010088
-0.00244995
-0.000702426
-0.00315126
-0.00040241
-0.00364002
-0.000200107
-0.00397147
-8.92608e-05
-0.00420369
-4.16933e-05
-0.00438306
-3.29575e-05
-0.00454215
-4.8104e-05
-0.00470148
-7.80717e-05
-0.00487016
-0.000114324
-0.00504177
-0.000145685
-0.00518651
-0.000155503
-0.00524236
-0.000119882
-0.00511883
-1.60486e-06
-0.00468355
0.000213706
-0.00382831
0.000559956
-0.00252766
0.000982784
-0.00100077
0.00128454
0.00098379
-0.000890021
-0.00189843
-0.00260039
-0.00300233
-0.00320198
-0.00329082
-0.00333211
-0.00336468
-0.00341242
-0.00349015
-0.00360415
-0.00374952
-0.00390474
-0.00402434
-0.00402568
-0.00381173
-0.00325154
-0.00226856
-0.000983857
)
;

boundaryField
{
    leftWall
    {
        type            calculated;
        value           nonuniform List<scalar> 10(0 0 0 -5.42101e-20 0 0 0 0 0 0);
    }
    rightWall
    {
        type            calculated;
        value           nonuniform List<scalar> 10(1.0842e-19 -2.1684e-19 0 4.33681e-19 4.33681e-19 0 0 0 0 0);
    }
    topWall
    {
        type            calculated;
        value           uniform 0;
    }
    bottomWall
    {
        type            calculated;
        value           uniform 0;
    }
    frontAndBackPlanes
    {
        type            empty;
    }
}


// ************************************************************************* //
