/*--------------------------------*- C++ -*----------------------------------*\
| =========                 |                                                 |
| \\      /  F ield         | OpenFOAM: The Open Source CFD Toolbox           |
|  \\    /   O peration     | Version:  2506                                  |
|   \\  /    A nd           | Website:  www.openfoam.com                      |
|    \\/     M anipulation  |                                                 |
\*---------------------------------------------------------------------------*/
FoamFile
{
    version     2.0;
    format      ascii;
    arch        "LSB;label=32;scalar=64";
    class       volVectorField;
    location    "66.8";
    object      U;
}
// * * * * * * * * * * * * * * * * * * * * * * * * * * * * * * * * * * * * * //

dimensions      [0 1 -1 0 0 0 0];

internalField   nonuniform List<vector> 
200
(
(5.2562e-05 -0.00050679 0)
(0.000907541 -0.000726701 0)
(0.00209859 -0.000622665 0)
(0.00322899 -0.000452341 0)
(0.00410727 -0.000300872 0)
(0.00477332 -0.000203481 0)
(0.00530275 -0.000169856 0)
(0.00578003 -0.000194829 0)
(0.00628358 -0.000269836 0)
(0.00688058 -0.000389336 0)
(0.00762752 -0.000552395 0)
(0.00857071 -0.000759955 0)
(0.00974035 -0.00100659 0)
(0.011131 -0.0012641 0)
(0.0126547 -0.00145338 0)
(0.014039 -0.00139389 0)
(0.0146652 -0.000714176 0)
(0.0135857 0.00117967 0)
(0.00981173 0.00442096 0)
(0.00297792 0.00629871 0)
(0.00027036 -0.0023081 0)
(0.00194662 -0.00406053 0)
(0.00401643 -0.00418121 0)
(0.00601351 -0.00359138 0)
(0.0076807 -0.00284307 0)
(0.00899984 -0.00223414 0)
(0.010055 -0.00188149 0)
(0.0109546 -0.00179956 0)
(0.0117973 -0.00195766 0)
(0.0126603 -0.00231248 0)
(0.0135933 -0.00281814 0)
(0.014614 -0.00341533 0)
(0.0156943 -0.0039974 0)
(0.0167313 -0.00435021 0)
(0.0175 -0.00406578 0)
(0.0175983 -0.0024445 0)
(0.0163916 0.00153262 0)
(0.013131 0.00866855 0)
(0.00772796 0.0174525 0)
(0.00134066 0.0181419 0)
(0.000341817 -0.00466376 0)
(0.00232466 -0.00834726 0)
(0.00463249 -0.00873085 0)
(0.00680657 -0.00761142 0)
(0.00858529 -0.00612036 0)
(0.00995941 -0.00484138 0)
(0.0110201 -0.00399876 0)
(0.0118724 -0.00361747 0)
(0.0126024 -0.00363121 0)
(0.0132684 -0.00394184 0)
(0.0138991 -0.00443771 0)
(0.0144913 -0.00497493 0)
(0.0149977 -0.00532243 0)
(0.0153038 -0.00507466 0)
(0.0151936 -0.00355359 0)
(0.0143134 0.000229692 0)
(0.0122623 0.00729845 0)
(0.00884558 0.0177453 0)
(0.00449558 0.0281113 0)
(0.000555967 0.024747 0)
(0.000360905 -0.00728204 0)
(0.00235439 -0.0128529 0)
(0.00452139 -0.0132721 0)
(0.00643978 -0.0114346 0)
(0.00790381 -0.00908464 0)
(0.00895077 -0.00707305 0)
(0.00969304 -0.00569575 0)
(0.0102338 -0.0049576 0)
(0.0106441 -0.00474023 0)
(0.010965 -0.00488952 0)
(0.0112143 -0.00523953 0)
(0.011389 -0.00558283 0)
(0.0114565 -0.00559373 0)
(0.0113346 -0.00472088 0)
(0.0108664 -0.002101 0)
(0.00979267 0.00337755 0)
(0.00792565 0.0125262 0)
(0.00524826 0.0247682 0)
(0.00226824 0.0351217 0)
(0.000162115 0.0280803 0)
(0.000355065 -0.00983208 0)
(0.00212037 -0.0169213 0)
(0.00382411 -0.0170518 0)
(0.00515772 -0.0143303 0)
(0.0060284 -0.0111012 0)
(0.00653945 -0.00841819 0)
(0.00682159 -0.00658497 0)
(0.00696696 -0.00554669 0)
(0.00702582 -0.00512152 0)
(0.00702273 -0.00511023 0)
(0.00696994 -0.00531619 0)
(0.00687005 -0.00549659 0)
(0.00670653 -0.0052612 0)
(0.00642627 -0.00394936 0)
(0.00592124 -0.000564996 0)
(0.00502362 0.0060347 0)
(0.00368343 0.0164268 0)
(0.00200913 0.0294018 0)
(0.000449316 0.0389847 0)
(-0.000125658 0.0292412 0)
(0.000310122 -0.0120322 0)
(0.00154754 -0.0199737 0)
(0.00242013 -0.019441 0)
(0.00283978 -0.0157717 0)
(0.0028863 -0.0117994 0)
(0.00272571 -0.00865273 0)
(0.00248029 -0.00655976 0)
(0.00220835 -0.00537425 0)
(0.00192933 -0.00485642 0)
(0.00164985 -0.00478293 0)
(0.00137414 -0.00494541 0)
(0.00109943 -0.00507584 0)
(0.000805449 -0.00472826 0)
(0.000450426 -0.00315998 0)
(-3.18436e-05 0.000693346 0)
(-0.000635794 0.00788614 0)
(-0.00123985 0.0186918 0)
(-0.00159265 0.0313735 0)
(-0.00139232 0.039633 0)
(-0.000361454 0.0284637 0)
(0.000193888 -0.0134268 0)
(0.000433349 -0.0211744 0)
(-1.35457e-05 -0.019638 0)
(-0.000867658 -0.0151608 0)
(-0.0018423 -0.0108056 0)
(-0.00276509 -0.00757471 0)
(-0.00357393 -0.00552977 0)
(-0.00427066 -0.00442473 0)
(-0.00487692 -0.00398566 0)
(-0.00541244 -0.00398474 0)
(-0.00589345 -0.00420492 0)
(-0.00633939 -0.00435081 0)
(-0.00677302 -0.0039444 0)
(-0.0071989 -0.0022552 0)
(-0.00755703 0.00164481 0)
(-0.00763216 0.00855409 0)
(-0.00712129 0.0185372 0)
(-0.00573413 0.0297892 0)
(-0.00347456 0.036514 0)
(-0.000653852 0.025538 0)
(-7.96088e-05 -0.0132024 0)
(-0.0015211 -0.0192744 0)
(-0.00378533 -0.0166366 0)
(-0.00614093 -0.0119509 0)
(-0.00816949 -0.00790093 0)
(-0.00978184 -0.00513158 0)
(-0.0110384 -0.00351445 0)
(-0.0120358 -0.00274472 0)
(-0.0128611 -0.0025523 0)
(-0.0135809 -0.0027268 0)
(-0.0142423 -0.00306421 0)
(-0.0148702 -0.00328906 0)
(-0.015449 -0.00298449 0)
(-0.015885 -0.00156532 0)
(-0.015946 0.00165278 0)
(-0.0152491 0.00723127 0)
(-0.0133796 0.0151774 0)
(-0.0100761 0.0240192 0)
(-0.00565913 0.0291684 0)
(-0.000974525 0.0202842 0)
(-0.00064232 -0.0102429 0)
(-0.00435241 -0.0132171 0)
(-0.0084414 -0.0101074 0)
(-0.0119027 -0.00631016 0)
(-0.0143842 -0.00350113 0)
(-0.0160529 -0.00183449 0)
(-0.0171841 -0.00103369 0)
(-0.0180094 -0.000802723 0)
(-0.0186945 -0.00092784 0)
(-0.0193501 -0.00126268 0)
(-0.0200403 -0.00167775 0)
(-0.0207765 -0.00200559 0)
(-0.0214916 -0.00199893 0)
(-0.0220055 -0.0013154 0)
(-0.0219826 0.000459228 0)
(-0.0208906 0.0037288 0)
(-0.0181878 0.00858766 0)
(-0.0135657 0.0142066 0)
(-0.00751025 0.017788 0)
(-0.00129036 0.0127655 0)
(-0.00160653 -0.00345518 0)
(-0.00597942 -0.00346298 0)
(-0.00958647 -0.00201241 0)
(-0.0119215 -0.000817852 0)
(-0.013135 -0.000146438 0)
(-0.0136763 0.000143297 0)
(-0.0139016 0.000211449 0)
(-0.0140276 0.000161648 0)
(-0.0141801 4.92678e-05 0)
(-0.0144369 -9.96044e-05 0)
(-0.014843 -0.00027067 0)
(-0.0154059 -0.000444921 0)
(-0.0160772 -0.000585198 0)
(-0.0167192 -0.000625422 0)
(-0.0170611 -0.000455391 0)
(-0.0167039 9.89644e-05 0)
(-0.0150997 0.00119709 0)
(-0.0117796 0.00278923 0)
(-0.00696219 0.00422427 0)
(-0.00168198 0.00362189 0)
)
;

boundaryField
{
    leftWall
    {
        type            fixedValue;
        value           uniform (0 0 0);
    }
    rightWall
    {
        type            fixedValue;
        value           uniform (0 0 0);
    }
    topWall
    {
        type            fixedValue;
        value           uniform (0 0 0);
    }
    bottomWall
    {
        type            fixedValue;
        value           uniform (0 0 0);
    }
    frontAndBackPlanes
    {
        type            empty;
    }
}


// ************************************************************************* //
