/*--------------------------------*- C++ -*----------------------------------*\
| =========                 |                                                 |
| \\      /  F ield         | OpenFOAM: The Open Source CFD Toolbox           |
|  \\    /   O peration     | Version:  2506                                  |
|   \\  /    A nd           | Website:  www.openfoam.com                      |
|    \\/     M anipulation  |                                                 |
\*---------------------------------------------------------------------------*/
FoamFile
{
    version     2.0;
    format      ascii;
    arch        "LSB;label=32;scalar=64";
    class       volScalarField;
    location    "17.4";
    object      T;
}
// * * * * * * * * * * * * * * * * * * * * * * * * * * * * * * * * * * * * * //

dimensions      [0 0 0 1 0 0 0];

internalField   nonuniform List<scalar> 
200
(
273.15
273.149
273.148
273.148
273.147
273.147
273.147
273.147
273.147
273.147
273.147
273.147
273.147
273.148
273.15
273.157
273.178
273.237
273.4
273.787
273.149
273.147
273.146
273.145
273.144
273.144
273.143
273.143
273.143
273.143
273.143
273.143
273.143
273.144
273.146
273.152
273.171
273.231
273.403
273.806
273.148
273.145
273.143
273.141
273.139
273.139
273.138
273.138
273.138
273.138
273.138
273.138
273.138
273.139
273.142
273.148
273.171
273.239
273.425
273.832
273.147
273.143
273.139
273.136
273.134
273.133
273.133
273.132
273.132
273.132
273.133
273.133
273.134
273.135
273.138
273.147
273.175
273.253
273.452
273.856
273.146
273.14
273.135
273.131
273.129
273.127
273.127
273.127
273.127
273.128
273.129
273.131
273.132
273.133
273.137
273.149
273.184
273.274
273.486
273.881
273.145
273.137
273.13
273.125
273.123
273.122
273.121
273.122
273.124
273.127
273.132
273.136
273.138
273.139
273.144
273.162
273.206
273.31
273.532
273.909
273.144
273.134
273.125
273.12
273.117
273.116
273.117
273.12
273.126
273.136
273.147
273.158
273.166
273.17
273.182
273.209
273.265
273.378
273.591
273.933
273.143
273.13
273.121
273.115
273.112
273.112
273.115
273.123
273.139
273.161
273.188
273.214
273.236
273.254
273.276
273.311
273.371
273.478
273.664
273.957
273.142
273.128
273.117
273.11
273.107
273.108
273.115
273.131
273.16
273.201
273.251
273.303
273.35
273.39
273.425
273.464
273.52
273.61
273.756
273.988
273.142
273.127
273.115
273.107
273.103
273.103
273.109
273.126
273.159
273.21
273.276
273.349
273.421
273.487
273.547
273.603
273.664
273.742
273.854
274.023
)
;

boundaryField
{
    leftWall
    {
        type            fixedValue;
        value           uniform 273.15;
    }
    rightWall
    {
        type            customNeumannDirichletCoupledBoundary;
        refValue        nonuniform List<scalar> 10(274.125 274.126 274.127 274.129 274.13 274.132 274.134 274.136 274.137 274.139);
        refGradient     uniform 0;
        valueFraction   uniform 1;
        source          uniform 0;
        value           nonuniform List<scalar> 10(274.125 274.126 274.127 274.129 274.13 274.132 274.134 274.136 274.137 274.139);
        kappaMethod     fluidThermo;
    }
    topWall
    {
        type            zeroGradient;
    }
    bottomWall
    {
        type            zeroGradient;
    }
    frontAndBackPlanes
    {
        type            empty;
    }
}


// ************************************************************************* //
