/*--------------------------------*- C++ -*----------------------------------*\
| =========                 |                                                 |
| \\      /  F ield         | OpenFOAM: The Open Source CFD Toolbox           |
|  \\    /   O peration     | Version:  2506                                  |
|   \\  /    A nd           | Website:  www.openfoam.com                      |
|    \\/     M anipulation  |                                                 |
\*---------------------------------------------------------------------------*/
FoamFile
{
    version     2.0;
    format      ascii;
    arch        "LSB;label=32;scalar=64";
    class       volScalarField;
    location    "70.8";
    object      p_rgh;
}
// * * * * * * * * * * * * * * * * * * * * * * * * * * * * * * * * * * * * * //

dimensions      [1 -1 -2 0 0 0 0];

internalField   nonuniform List<scalar> 
200
(
100000
100000
100000
100000
100000
100000
99999.9
99999.9
99999.9
99999.9
99999.8
99999.8
99999.7
99999.7
99999.6
99999.5
99999.3
99999.1
99998.7
99998.1
100000
100000
100000
99999.9
99999.9
99999.9
99999.8
99999.8
99999.8
99999.8
99999.8
99999.7
99999.7
99999.7
99999.6
99999.5
99999.4
99999.1
99998.4
99996.9
100000
100000
99999.8
99999.7
99999.7
99999.6
99999.6
99999.6
99999.6
99999.6
99999.5
99999.5
99999.5
99999.5
99999.5
99999.5
99999.3
99998.9
99997.7
99995.3
100000
99999.9
99999.6
99999.3
99999.2
99999.2
99999.2
99999.2
99999.2
99999.2
99999.2
99999.2
99999.2
99999.3
99999.3
99999.3
99999.1
99998.4
99996.7
99993.5
100001
99999.8
99999.2
99998.8
99998.6
99998.5
99998.5
99998.6
99998.6
99998.6
99998.6
99998.7
99998.8
99998.9
99999
99999
99998.7
99997.8
99995.5
99991.5
100001
99999.6
99998.6
99998.1
99997.8
99997.8
99997.8
99997.8
99997.8
99997.9
99997.9
99998
99998.1
99998.3
99998.4
99998.4
99998
99996.7
99994.1
99989.7
100001
99999.4
99998
99997.2
99996.9
99996.8
99996.8
99996.8
99996.8
99996.7
99996.8
99996.8
99996.9
99997.1
99997.2
99997.1
99996.6
99995.2
99992.4
99987.9
100002
99999
99997.2
99996.2
99995.8
99995.6
99995.4
99995.3
99995.2
99995.1
99995
99995
99995
99995
99995
99994.9
99994.3
99993
99990.4
99986.3
100002
99998.5
99996.3
99995.1
99994.5
99994.1
99993.7
99993.4
99993.2
99992.9
99992.7
99992.5
99992.3
99992.1
99992
99991.8
99991.3
99990.3
99988.2
99984.7
100002
99998.2
99995.8
99994.4
99993.6
99993.1
99992.6
99992.2
99991.8
99991.4
99991
99990.6
99990.2
99989.8
99989.4
99989
99988.4
99987.5
99986
99983.5
)
;

boundaryField
{
    leftWall
    {
        type            fixedFluxPressure;
        gradient        nonuniform List<scalar> 10(0.227209 1.46104 4.58567 10.1167 18.2648 29.258 43.686 63.6771 88.7822 111.763);
        value           nonuniform List<scalar> 10(100000 100000 100000 100001 100001 100002 100002 100003 100004 100005);
    }
    rightWall
    {
        type            fixedFluxPressure;
        gradient        nonuniform List<scalar> 10(-16.6465 -45.8042 -67.9057 -84.1518 -95.0084 -102.701 -105.551 -100.786 -85.5868 -63.5495);
        value           nonuniform List<scalar> 10(99997.7 99995.8 99993.6 99991.3 99989.2 99987.1 99985.3 99983.7 99982.6 99981.9);
    }
    topWall
    {
        type            fixedFluxPressure;
        gradient        uniform 0;
        value           nonuniform List<scalar> 
20
(
100000
100000
100000
100000
100000
100000
99999.9
99999.9
99999.9
99999.9
99999.8
99999.8
99999.7
99999.7
99999.6
99999.5
99999.3
99999.1
99998.7
99998.1
)
;
    }
    bottomWall
    {
        type            fixedFluxPressure;
        gradient        uniform 0;
        value           nonuniform List<scalar> 
20
(
100002
99998.2
99995.8
99994.4
99993.6
99993.1
99992.6
99992.2
99991.8
99991.4
99991
99990.6
99990.2
99989.8
99989.4
99989
99988.4
99987.5
99986
99983.5
)
;
    }
    frontAndBackPlanes
    {
        type            empty;
    }
}


// ************************************************************************* //
