/*--------------------------------*- C++ -*----------------------------------*\
| =========                 |                                                 |
| \\      /  F ield         | OpenFOAM: The Open Source CFD Toolbox           |
|  \\    /   O peration     | Version:  2506                                  |
|   \\  /    A nd           | Website:  www.openfoam.com                      |
|    \\/     M anipulation  |                                                 |
\*---------------------------------------------------------------------------*/
FoamFile
{
    version     2.0;
    format      ascii;
    arch        "LSB;label=32;scalar=64";
    class       volScalarField;
    location    "70.8";
    object      T;
}
// * * * * * * * * * * * * * * * * * * * * * * * * * * * * * * * * * * * * * //

dimensions      [0 0 0 1 0 0 0];

internalField   nonuniform List<scalar> 
200
(
273.154
273.162
273.168
273.172
273.175
273.176
273.177
273.178
273.179
273.18
273.181
273.182
273.184
273.186
273.189
273.197
273.22
273.283
273.445
273.815
273.159
273.176
273.189
273.197
273.201
273.203
273.204
273.205
273.205
273.206
273.207
273.208
273.209
273.209
273.21
273.215
273.234
273.295
273.465
273.842
273.167
273.199
273.223
273.237
273.245
273.248
273.249
273.248
273.248
273.247
273.247
273.247
273.246
273.244
273.241
273.243
273.261
273.328
273.506
273.875
273.177
273.227
273.264
273.286
273.297
273.301
273.301
273.299
273.298
273.296
273.294
273.292
273.288
273.282
273.275
273.274
273.293
273.366
273.552
273.907
273.188
273.258
273.308
273.338
273.352
273.357
273.356
273.353
273.35
273.347
273.344
273.339
273.332
273.322
273.311
273.309
273.332
273.413
273.603
273.936
273.2
273.291
273.356
273.393
273.409
273.413
273.412
273.409
273.406
273.404
273.401
273.395
273.386
273.372
273.36
273.361
273.391
273.479
273.662
273.961
273.213
273.327
273.406
273.449
273.467
273.472
273.472
273.472
273.473
273.473
273.472
273.467
273.46
273.45
273.444
273.45
273.483
273.565
273.728
273.986
273.23
273.367
273.456
273.503
273.525
273.536
273.544
273.55
273.557
273.563
273.567
273.569
273.568
273.566
273.567
273.575
273.605
273.674
273.805
274.014
273.248
273.404
273.501
273.555
273.585
273.606
273.622
273.637
273.651
273.664
273.676
273.686
273.696
273.704
273.713
273.725
273.75
273.801
273.895
274.047
273.26
273.425
273.524
273.582
273.618
273.644
273.666
273.686
273.706
273.726
273.745
273.765
273.785
273.805
273.825
273.847
273.875
273.916
273.981
274.08
)
;

boundaryField
{
    leftWall
    {
        type            fixedValue;
        value           uniform 273.15;
    }
    rightWall
    {
        type            customNeumannDirichletCoupledBoundary;
        refValue        nonuniform List<scalar> 10(274.127 274.128 274.13 274.132 274.134 274.136 274.138 274.14 274.142 274.143);
        refGradient     uniform 0;
        valueFraction   uniform 1;
        source          uniform 0;
        value           nonuniform List<scalar> 10(274.127 274.128 274.13 274.132 274.134 274.136 274.138 274.14 274.142 274.143);
        kappaMethod     fluidThermo;
    }
    topWall
    {
        type            zeroGradient;
    }
    bottomWall
    {
        type            zeroGradient;
    }
    frontAndBackPlanes
    {
        type            empty;
    }
}


// ************************************************************************* //
