/*--------------------------------*- C++ -*----------------------------------*\
| =========                 |                                                 |
| \\      /  F ield         | OpenFOAM: The Open Source CFD Toolbox           |
|  \\    /   O peration     | Version:  2506                                  |
|   \\  /    A nd           | Website:  www.openfoam.com                      |
|    \\/     M anipulation  |                                                 |
\*---------------------------------------------------------------------------*/
FoamFile
{
    version     2.0;
    format      ascii;
    arch        "LSB;label=32;scalar=64";
    class       volScalarField;
    location    "12.2";
    object      T;
}
// * * * * * * * * * * * * * * * * * * * * * * * * * * * * * * * * * * * * * //

dimensions      [0 0 0 1 0 0 0];

internalField   nonuniform List<scalar> 
200
(
273.15
273.149
273.149
273.148
273.148
273.148
273.148
273.148
273.148
273.148
273.148
273.148
273.148
273.148
273.15
273.156
273.175
273.233
273.394
273.783
273.149
273.147
273.146
273.145
273.144
273.144
273.144
273.144
273.144
273.144
273.144
273.144
273.144
273.145
273.146
273.152
273.171
273.231
273.404
273.807
273.148
273.144
273.141
273.14
273.139
273.139
273.138
273.138
273.138
273.138
273.138
273.138
273.138
273.139
273.141
273.149
273.172
273.243
273.431
273.836
273.147
273.141
273.137
273.134
273.133
273.133
273.132
273.132
273.132
273.132
273.132
273.132
273.133
273.134
273.137
273.146
273.176
273.258
273.46
273.861
273.145
273.138
273.132
273.129
273.127
273.126
273.126
273.126
273.126
273.126
273.126
273.126
273.127
273.128
273.133
273.146
273.182
273.276
273.49
273.883
273.144
273.134
273.127
273.123
273.121
273.12
273.12
273.12
273.12
273.12
273.12
273.121
273.123
273.125
273.132
273.149
273.194
273.301
273.524
273.904
273.143
273.13
273.122
273.117
273.115
273.114
273.114
273.114
273.114
273.115
273.116
273.118
273.123
273.131
273.144
273.17
273.228
273.344
273.564
273.919
273.142
273.127
273.117
273.112
273.109
273.108
273.108
273.108
273.109
273.11
273.114
273.122
273.136
273.157
273.186
273.228
273.296
273.413
273.614
273.934
273.141
273.124
273.113
273.106
273.103
273.103
273.102
273.103
273.104
273.108
273.116
273.135
273.166
273.211
273.266
273.329
273.406
273.515
273.684
273.954
273.14
273.122
273.11
273.103
273.099
273.098
273.098
273.098
273.099
273.103
273.114
273.138
273.181
273.244
273.324
273.413
273.508
273.619
273.764
273.98
)
;

boundaryField
{
    leftWall
    {
        type            fixedValue;
        value           uniform 273.15;
    }
    rightWall
    {
        type            customNeumannDirichletCoupledBoundary;
        refValue        nonuniform List<scalar> 10(274.124 274.125 274.127 274.129 274.13 274.132 274.133 274.134 274.135 274.136);
        refGradient     uniform 0;
        valueFraction   uniform 1;
        source          uniform 0;
        value           nonuniform List<scalar> 10(274.124 274.125 274.127 274.129 274.13 274.132 274.133 274.134 274.135 274.136);
        kappaMethod     fluidThermo;
    }
    topWall
    {
        type            zeroGradient;
    }
    bottomWall
    {
        type            zeroGradient;
    }
    frontAndBackPlanes
    {
        type            empty;
    }
}


// ************************************************************************* //
