/*--------------------------------*- C++ -*----------------------------------*\
| =========                 |                                                 |
| \\      /  F ield         | OpenFOAM: The Open Source CFD Toolbox           |
|  \\    /   O peration     | Version:  2506                                  |
|   \\  /    A nd           | Website:  www.openfoam.com                      |
|    \\/     M anipulation  |                                                 |
\*---------------------------------------------------------------------------*/
FoamFile
{
    version     2.0;
    format      ascii;
    arch        "LSB;label=32;scalar=64";
    class       volScalarField;
    location    "26";
    object      T;
}
// * * * * * * * * * * * * * * * * * * * * * * * * * * * * * * * * * * * * * //

dimensions      [0 0 0 1 0 0 0];

internalField   nonuniform List<scalar> 
200
(
273.15
273.149
273.148
273.147
273.146
273.146
273.146
273.145
273.145
273.145
273.145
273.145
273.146
273.147
273.149
273.157
273.179
273.239
273.403
273.79
273.149
273.148
273.147
273.146
273.145
273.144
273.143
273.143
273.143
273.143
273.143
273.143
273.143
273.144
273.145
273.151
273.17
273.23
273.403
273.807
273.149
273.147
273.145
273.143
273.142
273.141
273.141
273.141
273.141
273.141
273.141
273.141
273.141
273.141
273.142
273.148
273.168
273.236
273.422
273.831
273.149
273.145
273.143
273.14
273.139
273.139
273.139
273.14
273.142
273.142
273.143
273.142
273.141
273.14
273.141
273.148
273.172
273.249
273.449
273.855
273.148
273.144
273.14
273.138
273.137
273.139
273.143
273.147
273.151
273.153
273.154
273.152
273.149
273.145
273.145
273.153
273.184
273.272
273.484
273.881
273.147
273.142
273.138
273.136
273.14
273.147
273.158
273.168
273.176
273.181
273.18
273.176
273.168
273.162
273.161
273.173
273.212
273.314
273.536
273.91
273.147
273.14
273.136
273.138
273.149
273.168
273.19
273.21
273.224
273.231
273.23
273.223
273.214
273.21
273.214
273.234
273.284
273.392
273.601
273.936
273.145
273.137
273.136
273.147
273.172
273.207
273.245
273.276
273.299
273.312
273.317
273.319
273.319
273.321
273.331
273.355
273.407
273.506
273.684
273.965
273.144
273.136
273.138
273.159
273.2
273.254
273.31
273.359
273.399
273.429
273.451
273.468
273.482
273.493
273.507
273.532
273.577
273.655
273.788
274.003
273.143
273.133
273.134
273.155
273.199
273.259
273.325
273.391
273.45
273.502
273.545
273.583
273.615
273.645
273.673
273.705
273.746
273.807
273.9
274.045
)
;

boundaryField
{
    leftWall
    {
        type            fixedValue;
        value           uniform 273.15;
    }
    rightWall
    {
        type            customNeumannDirichletCoupledBoundary;
        refValue        nonuniform List<scalar> 10(274.125 274.126 274.127 274.129 274.13 274.132 274.134 274.136 274.138 274.14);
        refGradient     uniform 0;
        valueFraction   uniform 1;
        source          uniform 0;
        value           nonuniform List<scalar> 10(274.125 274.126 274.127 274.129 274.13 274.132 274.134 274.136 274.138 274.14);
        kappaMethod     fluidThermo;
    }
    topWall
    {
        type            zeroGradient;
    }
    bottomWall
    {
        type            zeroGradient;
    }
    frontAndBackPlanes
    {
        type            empty;
    }
}


// ************************************************************************* //
