/*--------------------------------*- C++ -*----------------------------------*\
| =========                 |                                                 |
| \\      /  F ield         | OpenFOAM: The Open Source CFD Toolbox           |
|  \\    /   O peration     | Version:  2506                                  |
|   \\  /    A nd           | Website:  www.openfoam.com                      |
|    \\/     M anipulation  |                                                 |
\*---------------------------------------------------------------------------*/
FoamFile
{
    version     2.0;
    format      ascii;
    arch        "LSB;label=32;scalar=64";
    class       volVectorField;
    location    "26";
    object      U;
}
// * * * * * * * * * * * * * * * * * * * * * * * * * * * * * * * * * * * * * //

dimensions      [0 1 -1 0 0 0 0];

internalField   nonuniform List<vector> 
200
(
(-0.000251068 -8.26801e-05 0)
(-0.000165269 -0.000206974 0)
(0.000467905 -0.000324271 0)
(0.00145389 -0.000473252 0)
(0.00265799 -0.000592409 0)
(0.00403129 -0.00066191 0)
(0.00548513 -0.000687502 0)
(0.00694113 -0.000683963 0)
(0.00834661 -0.000670932 0)
(0.00967755 -0.000669435 0)
(0.0109356 -0.000698366 0)
(0.0121406 -0.000771257 0)
(0.0133165 -0.00089173 0)
(0.0144683 -0.00104284 0)
(0.0155367 -0.00116248 0)
(0.0163037 -0.00108541 0)
(0.0162908 -0.000440349 0)
(0.0146368 0.0013675 0)
(0.0103796 0.00457394 0)
(0.00310012 0.00652073 0)
(2.56155e-05 -0.000538386 0)
(0.000685107 -0.00174504 0)
(0.00207665 -0.00294152 0)
(0.00404394 -0.0039856 0)
(0.00641074 -0.0047385 0)
(0.00900366 -0.00516182 0)
(0.0116584 -0.00528131 0)
(0.0142362 -0.00516435 0)
(0.0166345 -0.00489826 0)
(0.0187859 -0.00456868 0)
(0.020648 -0.00423972 0)
(0.0221846 -0.00393509 0)
(0.0233414 -0.0036146 0)
(0.0240157 -0.00313482 0)
(0.0240158 -0.00217737 0)
(0.0230128 -0.000134031 0)
(0.0204699 0.00392816 0)
(0.0158013 0.0108357 0)
(0.00908034 0.0193109 0)
(0.00155876 0.0194943 0)
(0.000108655 -0.00146724 0)
(0.00119958 -0.00438738 0)
(0.00312187 -0.00700406 0)
(0.0056638 -0.00905885 0)
(0.00855746 -0.0104121 0)
(0.0115702 -0.0110423 0)
(0.0145071 -0.0110275 0)
(0.0172182 -0.0105105 0)
(0.0196021 -0.00965593 0)
(0.0215975 -0.00860728 0)
(0.0231653 -0.00745014 0)
(0.0242627 -0.00618046 0)
(0.0248156 -0.00467113 0)
(0.0246907 -0.0026272 0)
(0.0236562 0.000477654 0)
(0.0214206 0.00538967 0)
(0.0177123 0.0129159 0)
(0.0124567 0.0232184 0)
(0.0063054 0.0329903 0)
(0.000828919 0.0279466 0)
(0.000146714 -0.00285903 0)
(0.00148332 -0.00786744 0)
(0.00367176 -0.0119379 0)
(0.00641151 -0.0148662 0)
(0.00936522 -0.0165599 0)
(0.0122634 -0.0170685 0)
(0.0149038 -0.0165735 0)
(0.017156 -0.0153375 0)
(0.0189589 -0.0136321 0)
(0.0203032 -0.0116697 0)
(0.0212019 -0.00955132 0)
(0.0216571 -0.00722793 0)
(0.0216293 -0.00446789 0)
(0.0210082 -0.000830918 0)
(0.0195726 0.00431698 0)
(0.0171586 0.0116761 0)
(0.0136125 0.0218194 0)
(0.009033 0.0341412 0)
(0.00415074 0.0436208 0)
(0.000434192 0.0333985 0)
(0.000176239 -0.00446485 0)
(0.00156119 -0.0116294 0)
(0.00367177 -0.0169972 0)
(0.00616034 -0.0205052 0)
(0.00866727 -0.0221683 0)
(0.0109235 -0.0221641 0)
(0.0127535 -0.0208406 0)
(0.0140827 -0.0186356 0)
(0.0149269 -0.0159635 0)
(0.0153615 -0.0131164 0)
(0.0154775 -0.0101991 0)
(0.0153406 -0.00709066 0)
(0.0149558 -0.00342598 0)
(0.0142047 0.00138983 0)
(0.0129597 0.00803595 0)
(0.011067 0.0171739 0)
(0.00843959 0.0290845 0)
(0.00522547 0.0424482 0)
(0.00205316 0.0509631 0)
(0.000103951 0.0365067 0)
(0.00017459 -0.00602733 0)
(0.00128174 -0.0150135 0)
(0.00279499 -0.0212479 0)
(0.00440293 -0.0248934 0)
(0.00580728 -0.0261111 0)
(0.00679965 -0.0252497 0)
(0.00728187 -0.0228805 0)
(0.00727665 -0.019664 0)
(0.00690358 -0.0161773 0)
(0.00632874 -0.0127795 0)
(0.00570668 -0.00954094 0)
(0.00513475 -0.00621785 0)
(0.00462742 -0.00226662 0)
(0.00407121 0.00307371 0)
(0.00338993 0.0105471 0)
(0.00248344 0.0207242 0)
(0.00136135 0.0335654 0)
(0.000215133 0.0471288 0)
(-0.00052829 0.0543052 0)
(-0.000268765 0.0371151 0)
(0.000101394 -0.00704368 0)
(0.000411834 -0.0169009 0)
(0.000600397 -0.0232612 0)
(0.000513071 -0.0265064 0)
(3.11765e-05 -0.0269276 0)
(-0.000904381 -0.0250491 0)
(-0.00224135 -0.0217004 0)
(-0.00382933 -0.0177798 0)
(-0.00546937 -0.01399 0)
(-0.00696733 -0.0106746 0)
(-0.00818391 -0.00777629 0)
(-0.00905501 -0.00487132 0)
(-0.00957734 -0.00125248 0)
(-0.00977481 0.00391415 0)
(-0.00961714 0.0113347 0)
(-0.00906714 0.0214195 0)
(-0.0079904 0.0338284 0)
(-0.00620998 0.0463129 0)
(-0.00372836 0.0520133 0)
(-0.000726778 0.0345941 0)
(-9.72957e-05 -0.00674155 0)
(-0.00119507 -0.0157823 0)
(-0.00310466 -0.021238 0)
(-0.00566228 -0.0235361 0)
(-0.00864768 -0.0230522 0)
(-0.0118541 -0.0204815 0)
(-0.0150623 -0.016809 0)
(-0.0180609 -0.0130054 0)
(-0.020684 -0.00972859 0)
(-0.0228303 -0.00719637 0)
(-0.0244563 -0.00521273 0)
(-0.025542 -0.00326778 0)
(-0.0260403 -0.000657985 0)
(-0.0257923 0.0033722 0)
(-0.0246273 0.00945172 0)
(-0.0223142 0.0178853 0)
(-0.0186057 0.0282585 0)
(-0.0134316 0.038524 0)
(-0.007316 0.042944 0)
(-0.00125102 0.0283302 0)
(-0.000355377 -0.0045436 0)
(-0.00295948 -0.0106539 0)
(-0.00707061 -0.0142223 0)
(-0.0120708 -0.015415 0)
(-0.0172996 -0.0145177 0)
(-0.0222491 -0.0121747 0)
(-0.0265785 -0.0092546 0)
(-0.0301311 -0.00653781 0)
(-0.0329139 -0.00448581 0)
(-0.0350325 -0.00318692 0)
(-0.0366031 -0.00242579 0)
(-0.0376717 -0.00178986 0)
(-0.0381532 -0.000760467 0)
(-0.0377836 0.00122469 0)
(-0.0361732 0.00469702 0)
(-0.032849 0.00993492 0)
(-0.0273622 0.016689 0)
(-0.019625 0.0236122 0)
(-0.0105165 0.0269928 0)
(-0.00176828 0.0182672 0)
(-0.000403043 -0.00106599 0)
(-0.00273694 -0.00242874 0)
(-0.00664867 -0.00319406 0)
(-0.0113351 -0.00335976 0)
(-0.0159926 -0.00297788 0)
(-0.0200258 -0.00224191 0)
(-0.0231277 -0.00142162 0)
(-0.0252845 -0.000744544 0)
(-0.0266897 -0.000330632 0)
(-0.0276177 -0.000193415 0)
(-0.0283128 -0.000271524 0)
(-0.0289145 -0.0004593 0)
(-0.0294127 -0.000622939 0)
(-0.0296114 -0.000594501 0)
(-0.0291333 -0.000146908 0)
(-0.0274018 0.000919757 0)
(-0.0237609 0.00268868 0)
(-0.0178189 0.00492991 0)
(-0.0101643 0.00663787 0)
(-0.00240118 0.00526516 0)
)
;

boundaryField
{
    leftWall
    {
        type            fixedValue;
        value           uniform (0 0 0);
    }
    rightWall
    {
        type            fixedValue;
        value           uniform (0 0 0);
    }
    topWall
    {
        type            fixedValue;
        value           uniform (0 0 0);
    }
    bottomWall
    {
        type            fixedValue;
        value           uniform (0 0 0);
    }
    frontAndBackPlanes
    {
        type            empty;
    }
}


// ************************************************************************* //
