/*--------------------------------*- C++ -*----------------------------------*\
| =========                 |                                                 |
| \\      /  F ield         | OpenFOAM: The Open Source CFD Toolbox           |
|  \\    /   O peration     | Version:  2506                                  |
|   \\  /    A nd           | Website:  www.openfoam.com                      |
|    \\/     M anipulation  |                                                 |
\*---------------------------------------------------------------------------*/
FoamFile
{
    version     2.0;
    format      ascii;
    arch        "LSB;label=32;scalar=64";
    class       surfaceScalarField;
    location    "87.4";
    object      phi;
}
// * * * * * * * * * * * * * * * * * * * * * * * * * * * * * * * * * * * * * //

dimensions      [1 0 -1 0 0 0 0];

oriented        oriented;

internalField   nonuniform List<scalar> 
370
(
0.0001943
-0.000246465
0.000579216
-0.000384835
0.00093351
-0.000354175
0.00119911
-0.00026546
0.00137568
-0.000176401
0.00148821
-0.000112354
0.00156768
-7.92877e-05
0.00164174
-7.38695e-05
0.00173187
-8.99395e-05
0.00185379
-0.000121713
0.00201883
-0.000164828
0.00223454
-0.000215495
0.00250274
-0.000267988
0.00281275
-0.000309781
0.00312694
-0.000313959
0.00335491
-0.000227732
0.00331015
4.49964e-05
0.00277427
0.000536119
0.00152192
0.00125256
0.00152203
0.000338911
-0.000585333
0.000931266
-0.000977072
0.00152178
-0.000944522
0.00200377
-0.000747256
0.00235931
-0.000531724
0.00261143
-0.000364258
0.0027962
-0.000263832
0.00294824
-0.000225682
0.00309458
-0.00023605
0.00325309
-0.000279992
0.00343247
-0.000343972
0.00363149
-0.000414266
0.00383523
-0.000471479
0.00400697
-0.000481273
0.00407554
-0.000382267
0.00392537
-7.72966e-05
0.00341485
0.000555772
0.00238702
0.00156421
0.000973548
0.00266626
0.0024957
0.000364143
-0.000949418
0.000974439
-0.00158721
0.0015746
-0.00154446
0.00206328
-0.00123567
0.00242548
-0.000893646
0.0026836
-0.000622098
0.00286977
-0.000449729
0.0030128
-0.00036843
0.00313341
-0.00035638
0.00324354
-0.000389832
0.00334661
-0.000446768
0.00343683
-0.000504193
0.00349572
-0.000530078
0.00348612
-0.000471384
0.00334664
-0.000242485
0.00299428
0.000275366
0.00236409
0.00118625
0.00146278
0.00246581
0.000503291
0.00362599
0.0029991
0.00034097
-0.00129032
0.00088107
-0.00212712
0.00138063
-0.00204376
0.00176229
-0.00161702
0.00202785
-0.00115888
0.00220593
-0.000799855
0.00232636
-0.000569834
0.00241099
-0.000452739
0.00247278
-0.000417845
0.00251777
-0.000434507
0.00254687
-0.000475541
0.00255546
-0.000512462
0.0025303
-0.000504594
0.00244441
-0.000385176
0.00225504
-5.27774e-05
0.0019154
0.00061533
0.0014043
0.00169768
0.000773407
0.00309701
0.000208333
0.00419131
0.00320754
0.000288845
-0.00157908
0.00069519
-0.00253325
0.00102195
-0.00237022
0.00123236
-0.00182709
0.00135191
-0.00127808
0.00141564
-0.000863231
0.00144871
-0.000602553
0.00146416
-0.000467851
0.00146705
-0.000420397
0.00145891
-0.000426025
0.00143988
-0.000456179
0.00140778
-0.000480014
0.00135453
-0.000451008
0.00126219
-0.000292487
0.00110284
0.000106927
0.00085592
0.000862606
0.000528877
0.00202507
0.000194359
0.00343185
-8.92624e-06
0.00439485
0.00319872
0.000201659
-0.00178066
0.000403309
-0.00273467
0.000488634
-0.00245523
0.000480162
-0.00181826
0.000427079
-0.00122463
0.000363362
-0.000799157
0.0003029
-0.000541743
0.000247425
-0.000412033
0.000194814
-0.000367446
0.000143468
-0.00037434
9.2461e-05
-0.000404833
3.90754e-05
-0.000426288
-2.36697e-05
-0.000387918
-0.000106054
-0.000209749
-0.000214123
0.000215361
-0.000335015
0.000983866
-0.00042618
0.00211659
-0.000412098
0.00341809
-0.000234242
0.00421723
0.00296457
4.7769e-05
-0.00182833
-5.66791e-05
-0.00262996
-0.00028846
-0.00222312
-0.000556814
-0.00154955
-0.000800762
-0.000980332
-0.00100013
-0.000599442
-0.00115847
-0.000383062
-0.00128659
-0.00028358
-0.00139397
-0.000259737
-0.00148684
-0.00028114
-0.00156964
-0.000321704
-0.00164647
-0.000349118
-0.00171957
-0.000314481
-0.00178251
-0.000146468
-0.00180681
0.000240014
-0.00174083
0.000918238
-0.00151546
0.00189155
-0.0010755
0.00297843
-0.000465352
0.00360732
0.00249931
-0.000215825
-0.0016124
-0.000752916
-0.00209261
-0.0013681
-0.00160759
-0.00190816
-0.00100915
-0.00232656
-0.00056159
-0.00263394
-0.00029173
-0.00285944
-0.000157234
-0.00303123
-0.000111468
-0.00317077
-0.000119888
-0.00329255
-0.000159043
-0.00340476
-0.000209194
-0.00350769
-0.000245873
-0.00358848
-0.000233382
-0.00361255
-0.000122094
-0.00351817
0.000145947
-0.0032222
0.000622578
-0.002644
0.00131365
-0.00175809
0.00209278
-0.000707568
0.002557
0.00179182
-0.000622106
-0.000990169
-0.00166636
-0.00104807
-0.00260196
-0.000671658
-0.00327339
-0.000337375
-0.00370585
-0.000128792
-0.00397067
-2.65965e-05
-0.00413818
1.05857e-05
-0.00425871
9.35898e-06
-0.00436477
-1.35397e-05
-0.00447592
-4.76189e-05
-0.00459909
-8.57618e-05
-0.00472728
-0.000117418
-0.00483249
-0.000127925
-0.00485807
-9.62644e-05
-0.00472071
8.8324e-06
-0.00430279
0.000204901
-0.00350546
0.000516546
-0.00230726
0.000894778
-0.000910488
0.00116038
0.000881397
-0.000990038
-0.00203783
-0.00270916
-0.00304619
-0.00317466
-0.00320095
-0.00319008
-0.00318045
-0.00319373
-0.00324111
-0.00332664
-0.00344384
-0.00357157
-0.00366764
-0.00365863
-0.00345356
-0.00293685
-0.00204193
-0.000881443
)
;

boundaryField
{
    leftWall
    {
        type            calculated;
        value           uniform 0;
    }
    rightWall
    {
        type            calculated;
        value           uniform 0;
    }
    topWall
    {
        type            calculated;
        value           uniform 0;
    }
    bottomWall
    {
        type            calculated;
        value           uniform 0;
    }
    frontAndBackPlanes
    {
        type            empty;
    }
}


// ************************************************************************* //
