/*--------------------------------*- C++ -*----------------------------------*\
| =========                 |                                                 |
| \\      /  F ield         | OpenFOAM: The Open Source CFD Toolbox           |
|  \\    /   O peration     | Version:  2506                                  |
|   \\  /    A nd           | Website:  www.openfoam.com                      |
|    \\/     M anipulation  |                                                 |
\*---------------------------------------------------------------------------*/
FoamFile
{
    version     2.0;
    format      ascii;
    arch        "LSB;label=32;scalar=64";
    class       surfaceScalarField;
    location    "106.6";
    object      phi;
}
// * * * * * * * * * * * * * * * * * * * * * * * * * * * * * * * * * * * * * //

dimensions      [1 0 -1 0 0 0 0];

oriented        oriented;

internalField   nonuniform List<scalar> 
370
(
0.000274901
-0.00031599
0.000749021
-0.000474048
0.00116697
-0.000417844
0.00146148
-0.00029439
0.00163852
-0.000176891
0.00173315
-9.44765e-05
0.00178522
-5.19075e-05
0.00182841
-4.30174e-05
0.00188758
-5.89846e-05
0.0019797
-9.19305e-05
0.00211589
-0.000135992
0.00230277
-0.000186678
0.00254131
-0.000238327
0.00282053
-0.000279004
0.00310355
-0.000282801
0.00330185
-0.000198084
0.00323814
6.39398e-05
0.00269725
0.000541113
0.00146943
0.00122802
0.00146953
0.00040547
-0.000721423
0.00109399
-0.00116247
0.00175928
-0.00108299
0.00228112
-0.000816067
0.00264471
-0.000540298
0.00288191
-0.000331498
0.00303785
-0.000207658
0.00315422
-0.000159194
0.00326245
-0.000167011
0.00338249
-0.000211766
0.00352368
-0.000276981
0.00368474
-0.000347529
0.0038507
-0.000404067
0.00398554
-0.000413623
0.00402033
-0.000317362
0.00384551
-2.30421e-05
0.00332146
0.000588225
0.00230745
0.00155535
0.000934981
0.00260069
0.00240461
0.000404777
-0.00112615
0.00106985
-0.00182742
0.00170841
-0.00172137
0.00221262
-0.00132007
0.00257131
-0.000898759
0.00281329
-0.000573251
0.00297637
-0.000370511
0.00309325
-0.000275841
0.00318684
-0.000260376
0.00327004
-0.000294737
0.00334651
-0.000353214
0.00341033
-0.000411122
0.00344315
-0.000436647
0.00340871
-0.000378943
0.00324839
-0.000156795
0.00288416
0.000341436
0.00226049
0.00121214
0.00138702
0.00242906
0.000471277
0.00351663
0.00287598
0.000357381
-0.00148348
0.000909392
-0.00237928
0.00140594
-0.00221771
0.00177289
-0.00168677
0.0020185
-0.00114412
0.00217648
-0.00073097
0.00227918
-0.00047295
0.00234898
-0.000345388
0.00239831
-0.00030945
0.00243238
-0.000328556
0.00245135
-0.000371932
0.00245006
-0.000409575
0.002415
-0.000401334
0.00231986
-0.000283546
0.00212464
3.86907e-05
0.00178922
0.000677118
0.0012971
0.00170452
0.000701864
0.00302454
0.000181408
0.00403729
0.00305748
0.000285061
-0.00176848
0.000667929
-0.00276198
0.000959077
-0.00250862
0.00113336
-0.00186079
0.00122398
-0.00123447
0.00126872
-0.000775438
0.00129188
-0.000495839
0.00130401
-0.000357256
0.00130757
-0.000312748
0.00130215
-0.00032287
0.00128668
-0.000356205
0.00125821
-0.00038084
0.00120825
-0.000351112
0.00111945
-0.000194478
0.000966726
0.000191686
0.000734173
0.000909944
0.00043284
0.00200613
0.000134798
0.00332284
-3.10235e-05
0.00420331
0.00302654
0.000183846
-0.00195226
0.000337161
-0.00291511
0.000368999
-0.00254021
0.000317967
-0.00180948
0.000239014
-0.00115524
0.000164596
-0.000700747
0.000104289
-0.000435267
5.5531e-05
-0.000308236
1.30292e-05
-0.000269987
-2.68035e-05
-0.00028278
-6.59864e-05
-0.000316765
-0.000107603
-0.000338965
-0.000158192
-0.000300262
-0.000226832
-0.00012557
-0.000317088
0.000282218
-0.000416154
0.00100929
-0.000481234
0.00207148
-0.00043934
0.00328119
-0.00023899
0.00400315
0.00278762
1.81047e-05
-0.00197029
-0.000141458
-0.00275535
-0.00042638
-0.00225504
-0.000729082
-0.00150651
-0.000986889
-0.000897165
-0.00118481
-0.000502569
-0.00133238
-0.000287435
-0.00144489
-0.000195474
-0.00153458
-0.000180047
-0.00160925
-0.000207863
-0.00167401
-0.000251753
-0.00173276
-0.000279967
-0.00178658
-0.000246184
-0.0018277
-8.41932e-05
-0.00182781
0.000282595
-0.0017395
0.000921243
-0.0014984
0.00183064
-0.00105366
0.00283668
-0.000451683
0.00340135
0.00233601
-0.000248771
-0.00172143
-0.000839402
-0.00216452
-0.00149306
-0.00160113
-0.00204771
-0.000951601
-0.00246091
-0.00048371
-0.00275074
-0.000212485
-0.00295276
-8.51709e-05
-0.00309851
-4.94889e-05
-0.00321143
-6.68854e-05
-0.00330724
-0.000111823
-0.00339416
-0.000164597
-0.00347198
-0.000201916
-0.0035274
-0.000190541
-0.00352651
-8.48475e-05
-0.00341145
0.000167762
-0.00310533
0.00061536
-0.00253412
0.00125965
-0.00167647
0.00197922
-0.000671145
0.00239618
0.00166492
-0.000665242
-0.0010561
-0.00175645
-0.00107311
-0.00270517
-0.000652158
-0.00335986
-0.000296658
-0.00375816
-8.51663e-05
-0.00398228
1.18774e-05
-0.00411395
4.67295e-05
-0.00420056
3.73446e-05
-0.00427434
7.10904e-06
-0.00435627
-2.96856e-05
-0.00445172
-6.89491e-05
-0.00455288
-0.00010056
-0.00463233
-0.000110911
-0.00463621
-8.07757e-05
-0.00448566
1.73885e-05
-0.00407241
0.000202288
-0.00330504
0.00049245
-0.00216684
0.000841179
-0.000851437
0.00108089
0.000813534
-0.001056
-0.0021289
-0.00278081
-0.00307722
-0.00316215
-0.00315004
-0.0031031
-0.00306555
-0.00305825
-0.00308776
-0.00315653
-0.00325693
-0.00336769
-0.00344832
-0.0034308
-0.00322839
-0.00273582
-0.00189454
-0.000813568
)
;

boundaryField
{
    leftWall
    {
        type            calculated;
        value           nonuniform List<scalar> 10(3.38813e-21 0 0 -1.0842e-19 0 -2.1684e-19 0 0 0 0);
    }
    rightWall
    {
        type            calculated;
        value           uniform 0;
    }
    topWall
    {
        type            calculated;
        value           uniform 0;
    }
    bottomWall
    {
        type            calculated;
        value           uniform 0;
    }
    frontAndBackPlanes
    {
        type            empty;
    }
}


// ************************************************************************* //
