/*--------------------------------*- C++ -*----------------------------------*\
| =========                 |                                                 |
| \\      /  F ield         | OpenFOAM: The Open Source CFD Toolbox           |
|  \\    /   O peration     | Version:  2506                                  |
|   \\  /    A nd           | Website:  www.openfoam.com                      |
|    \\/     M anipulation  |                                                 |
\*---------------------------------------------------------------------------*/
FoamFile
{
    version     2.0;
    format      ascii;
    arch        "LSB;label=32;scalar=64";
    class       volVectorField;
    location    "2.6";
    object      U;
}
// * * * * * * * * * * * * * * * * * * * * * * * * * * * * * * * * * * * * * //

dimensions      [0 1 -1 0 0 0 0];

internalField   nonuniform List<vector> 
200
(
(-0.000526223 -0.000337284 0)
(-0.000828738 -0.000365141 0)
(-0.000697825 -0.00021321 0)
(-0.000482506 -0.000179208 0)
(-0.000332898 -0.000182607 0)
(-0.000147519 -0.000185557 0)
(6.73253e-05 -0.000187605 0)
(0.000298762 -0.000192876 0)
(0.000545016 -0.000205296 0)
(0.00081347 -0.00022859 0)
(0.00111694 -0.000266395 0)
(0.00147233 -0.000322737 0)
(0.00189994 -0.00040217 0)
(0.00242161 -0.000508369 0)
(0.00305628 -0.000638559 0)
(0.00380803 -0.000767331 0)
(0.0046178 -0.00079738 0)
(0.00519779 -0.000414063 0)
(0.00480745 0.00112101 0)
(0.00181081 0.0038301 0)
(-7.7191e-05 -0.000217452 0)
(-0.000341204 -0.000231293 0)
(-0.00045912 -0.000209543 0)
(-0.000484096 -0.000345673 0)
(-0.000407716 -0.000508922 0)
(-0.000235959 -0.000635549 0)
(3.45517e-06 -0.000717326 0)
(0.000285556 -0.000776126 0)
(0.000597245 -0.000839425 0)
(0.0009361 -0.000929024 0)
(0.0013059 -0.00105948 0)
(0.0017121 -0.00123966 0)
(0.00215767 -0.00147136 0)
(0.00263751 -0.00174112 0)
(0.0031287 -0.00199872 0)
(0.0035716 -0.00210576 0)
(0.00383446 -0.00170956 0)
(0.00367158 1.86092e-05 0)
(0.00273697 0.00443948 0)
(0.000595363 0.00978439 0)
(-3.19516e-05 0.000224505 0)
(-0.000207197 0.000265194 0)
(-0.000319851 4.4448e-05 0)
(-0.000353159 -0.000331424 0)
(-0.000301754 -0.000716604 0)
(-0.000177307 -0.00101611 0)
(1.39537e-06 -0.00121701 0)
(0.000217619 -0.00135524 0)
(0.000459894 -0.00147606 0)
(0.000721965 -0.0016137 0)
(0.0010003 -0.00178732 0)
(0.00129079 -0.00200183 0)
(0.00158512 -0.00224444 0)
(0.0018664 -0.00247202 0)
(0.00210322 -0.00258361 0)
(0.00223995 -0.00236352 0)
(0.0021834 -0.00135845 0)
(0.0018201 0.00132864 0)
(0.00117379 0.00682273 0)
(0.000196846 0.0121193 0)
(-2.26086e-05 0.000365115 0)
(-0.000115139 0.000415716 0)
(-0.000173119 0.000129814 0)
(-0.000192417 -0.00034442 0)
(-0.000166918 -0.000837182 0)
(-9.98171e-05 -0.00123158 0)
(3.41247e-07 -0.00150511 0)
(0.000124605 -0.00169532 0)
(0.000265709 -0.00185297 0)
(0.0004183 -0.00201642 0)
(0.000577821 -0.00220511 0)
(0.000738823 -0.00241917 0)
(0.000892958 -0.00263497 0)
(0.00102698 -0.00279139 0)
(0.00112112 -0.00276243 0)
(0.00114535 -0.00230425 0)
(0.00105119 -0.000945621 0)
(0.00079294 0.0021811 0)
(0.000476948 0.00803349 0)
(5.57198e-05 0.0130731 0)
(-1.76763e-05 0.000482921 0)
(-8.43814e-05 0.000524455 0)
(-0.00011839 0.000185569 0)
(-0.000131482 -0.00034866 0)
(-0.000124614 -0.000899614 0)
(-0.000101329 -0.00134425 0)
(-6.5704e-05 -0.00165704 0)
(-2.1202e-05 -0.00187584 0)
(2.95761e-05 -0.00205316 0)
(8.47091e-05 -0.00222858 0)
(0.000142576 -0.00242124 0)
(0.000201276 -0.00262877 0)
(0.000257861 -0.00282242 0)
(0.000307852 -0.00293331 0)
(0.000345515 -0.00282586 0)
(0.000361488 -0.0022478 0)
(0.000330722 -0.000727321 0)
(0.000220389 0.00258191 0)
(0.000146395 0.00856312 0)
(-3.80414e-06 0.0134735 0)
(-1.78859e-05 0.000590343 0)
(-7.55151e-05 0.000609304 0)
(-9.70889e-05 0.000227083 0)
(-0.000109004 -0.000335068 0)
(-0.000120345 -0.000901194 0)
(-0.000137211 -0.0013537 0)
(-0.000161355 -0.00167055 0)
(-0.000191808 -0.00189176 0)
(-0.000226608 -0.00207122 0)
(-0.000263455 -0.00224941 0)
(-0.000299701 -0.00244599 0)
(-0.000332128 -0.00265875 0)
(-0.000356675 -0.00285854 0)
(-0.000367821 -0.00297507 0)
(-0.000357566 -0.00286974 0)
(-0.000318862 -0.00228467 0)
(-0.000263809 -0.000739624 0)
(-0.000224435 0.00261929 0)
(-8.46846e-05 0.00866785 0)
(-4.08435e-05 0.0135901 0)
(-1.72426e-05 0.000690307 0)
(-5.15527e-05 0.000673761 0)
(-4.65577e-05 0.00025789 0)
(-4.88637e-05 -0.000299629 0)
(-7.75532e-05 -0.000837275 0)
(-0.000139616 -0.00125446 0)
(-0.000231523 -0.00153937 0)
(-0.000346127 -0.00173623 0)
(-0.000476472 -0.00190008 0)
(-0.000616549 -0.00207194 0)
(-0.000760502 -0.0022729 0)
(-0.000901228 -0.00250375 0)
(-0.00102864 -0.00273999 0)
(-0.00112716 -0.00291674 0)
(-0.00117279 -0.00289916 0)
(-0.00113696 -0.00242598 0)
(-0.00101104 -0.00099743 0)
(-0.000809186 0.00228416 0)
(-0.000408916 0.00835032 0)
(-9.39842e-05 0.0134245 0)
(-4.73924e-06 0.000730109 0)
(3.23111e-05 0.000635956 0)
(9.76622e-05 0.000207527 0)
(0.000115429 -0.000288124 0)
(6.23204e-05 -0.000731651 0)
(-6.02185e-05 -0.00105771 0)
(-0.000237155 -0.00126978 0)
(-0.000452024 -0.00141373 0)
(-0.000693216 -0.00154109 0)
(-0.000953828 -0.00169002 0)
(-0.00122916 -0.00188226 0)
(-0.0015136 -0.00212423 0)
(-0.00179677 -0.00240281 0)
(-0.00205794 -0.00267061 0)
(-0.00225816 -0.00281409 0)
(-0.00233909 -0.00258875 0)
(-0.00224344 -0.0014861 0)
(-0.00190829 0.00146175 0)
(-0.00113473 0.00733857 0)
(-0.000234188 0.0126895 0)
(2.97425e-05 0.000636764 0)
(0.000192943 0.00044642 0)
(0.000319478 9.4921e-05 0)
(0.000338493 -0.000221727 0)
(0.000243232 -0.000472135 0)
(5.23752e-05 -0.000640869 0)
(-0.000203954 -0.000742338 0)
(-0.000500856 -0.000811534 0)
(-0.00082636 -0.00088452 0)
(-0.00117914 -0.000988453 0)
(-0.00156382 -0.00114182 0)
(-0.00198675 -0.00135687 0)
(-0.00245142 -0.00163787 0)
(-0.00295095 -0.0019706 0)
(-0.00345503 -0.00229496 0)
(-0.00389803 -0.00244046 0)
(-0.00417065 -0.00197697 0)
(-0.00404115 5.42306e-05 0)
(-0.00290008 0.00501519 0)
(-0.000674064 0.0104666 0)
(0.000114343 0.000235262 0)
(0.000334528 8.09711e-05 0)
(0.000406854 -4.90513e-05 0)
(0.000358883 -0.000119729 0)
(0.000226722 -0.000159338 0)
(3.98364e-05 -0.00018082 0)
(-0.000180451 -0.000192675 0)
(-0.000421173 -0.000203451 0)
(-0.000680661 -0.000220583 0)
(-0.000966887 -0.00024995 0)
(-0.00129502 -0.000296816 0)
(-0.00168605 -0.000366947 0)
(-0.00216589 -0.000466884 0)
(-0.00276221 -0.000601409 0)
(-0.00349775 -0.000763846 0)
(-0.00438002 -0.000910454 0)
(-0.00534981 -0.00089785 0)
(-0.00602588 -0.000334609 0)
(-0.00532782 0.00153065 0)
(-0.00203497 0.00423617 0)
)
;

boundaryField
{
    leftWall
    {
        type            fixedValue;
        value           uniform (0 0 0);
    }
    rightWall
    {
        type            fixedValue;
        value           uniform (0 0 0);
    }
    topWall
    {
        type            fixedValue;
        value           uniform (0 0 0);
    }
    bottomWall
    {
        type            fixedValue;
        value           uniform (0 0 0);
    }
    frontAndBackPlanes
    {
        type            empty;
    }
}


// ************************************************************************* //
