/*--------------------------------*- C++ -*----------------------------------*\
| =========                 |                                                 |
| \\      /  F ield         | OpenFOAM: The Open Source CFD Toolbox           |
|  \\    /   O peration     | Version:  2506                                  |
|   \\  /    A nd           | Website:  www.openfoam.com                      |
|    \\/     M anipulation  |                                                 |
\*---------------------------------------------------------------------------*/
FoamFile
{
    version     2.0;
    format      ascii;
    arch        "LSB;label=32;scalar=64";
    class       volVectorField;
    location    "110.2";
    object      U;
}
// * * * * * * * * * * * * * * * * * * * * * * * * * * * * * * * * * * * * * //

dimensions      [0 1 -1 0 0 0 0];

internalField   nonuniform List<vector> 
200
(
(0.000416784 -0.00110785 0)
(0.00221313 -0.00142519 0)
(0.00416482 -0.0010615 0)
(0.00574449 -0.000588462 0)
(0.00674091 -0.000222047 0)
(0.00727569 -1.15735e-05 0)
(0.00753496 5.95221e-05 0)
(0.00768719 2.84781e-05 0)
(0.00786 -6.94671e-05 0)
(0.00814161 -0.000210741 0)
(0.00859007 -0.000384978 0)
(0.00924273 -0.00059062 0)
(0.0101193 -0.000825056 0)
(0.0112094 -0.00106722 0)
(0.0124303 -0.00124709 0)
(0.0135286 -0.00119157 0)
(0.013936 -0.000541489 0)
(0.0127603 0.00123503 0)
(0.00910519 0.004213 0)
(0.00273696 0.00580985 0)
(0.000492314 -0.00445168 0)
(0.0031806 -0.00697126 0)
(0.00615018 -0.00631474 0)
(0.00873221 -0.00458233 0)
(0.0106071 -0.00286164 0)
(0.0118302 -0.00160543 0)
(0.0125955 -0.000908915 0)
(0.0131058 -0.000699879 0)
(0.0135236 -0.000852809 0)
(0.0139593 -0.00124774 0)
(0.0144747 -0.00179006 0)
(0.0150881 -0.00240048 0)
(0.0157696 -0.00297826 0)
(0.0164208 -0.00333598 0)
(0.0168365 -0.0031051 0)
(0.0166533 -0.00163098 0)
(0.0152805 0.00203536 0)
(0.0120733 0.00857816 0)
(0.00700406 0.0164868 0)
(0.00119045 0.016682 0)
(0.000483807 -0.00797431 0)
(0.00310911 -0.0129116 0)
(0.00593546 -0.0121211 0)
(0.00839602 -0.00922716 0)
(0.0102113 -0.00619283 0)
(0.0114345 -0.00385583 0)
(0.0122333 -0.00242017 0)
(0.0127725 -0.00178727 0)
(0.013175 -0.00175152 0)
(0.0135173 -0.00210016 0)
(0.0138339 -0.00264697 0)
(0.0141213 -0.00321663 0)
(0.0143324 -0.00358752 0)
(0.0143593 -0.00339951 0)
(0.0140066 -0.00204853 0)
(0.0129562 0.00135718 0)
(0.010911 0.00770139 0)
(0.00772273 0.017054 0)
(0.00381978 0.0261352 0)
(0.000439727 0.0224651 0)
(0.000436496 -0.0112422 0)
(0.00267903 -0.0181735 0)
(0.00492092 -0.0170553 0)
(0.00675167 -0.0130347 0)
(0.00801701 -0.00884747 0)
(0.00882175 -0.00561808 0)
(0.00932652 -0.00358837 0)
(0.00965655 -0.00259704 0)
(0.00988575 -0.00235294 0)
(0.0100487 -0.0025672 0)
(0.0101551 -0.00299051 0)
(0.0101951 -0.0033836 0)
(0.0101324 -0.00343787 0)
(0.00988754 -0.00266829 0)
(0.009317 -0.000329213 0)
(0.00822749 0.0045116 0)
(0.00649467 0.0125611 0)
(0.00414653 0.0232769 0)
(0.00165791 0.0320752 0)
(6.78266e-05 0.0250728 0)
(0.000371406 -0.0139711 0)
(0.0020442 -0.0221582 0)
(0.00344755 -0.0204179 0)
(0.00439689 -0.0153389 0)
(0.00491053 -0.0102678 0)
(0.00515254 -0.00646482 0)
(0.00526614 -0.00410868 0)
(0.00532623 -0.00293157 0)
(0.00535529 -0.0025603 0)
(0.00535281 -0.00266158 0)
(0.00531373 -0.00296406 0)
(0.0052305 -0.00320229 0)
(0.00508185 -0.00301305 0)
(0.00481522 -0.00182212 0)
(0.0043262 0.00120216 0)
(0.0035308 0.00695101 0)
(0.00239925 0.0159282 0)
(0.00108423 0.0270393 0)
(-3.1408e-06 0.0349226 0)
(-0.000173361 0.0256364 0)
(0.000282599 -0.0159744 0)
(0.00117084 -0.0244748 0)
(0.00149274 -0.0218303 0)
(0.00138355 -0.015877 0)
(0.00105799 -0.0103075 0)
(0.000706232 -0.00632162 0)
(0.000415228 -0.00393996 0)
(0.000191309 -0.0027745 0)
(9.66577e-06 -0.00239991 0)
(-0.000152399 -0.00247854 0)
(-0.000307143 -0.00274586 0)
(-0.000464589 -0.00292517 0)
(-0.000644627 -0.00261114 0)
(-0.000881268 -0.00117174 0)
(-0.00121706 0.00224359 0)
(-0.00162445 0.00842192 0)
(-0.00198589 0.0175833 0)
(-0.00205427 0.0282072 0)
(-0.00156811 0.034801 0)
(-0.000365 0.0245049 0)
(0.000153129 -0.01688 0)
(-0.000113752 -0.0245535 0)
(-0.0012093 -0.0208097 0)
(-0.00254421 -0.0143718 0)
(-0.00376277 -0.00885878 0)
(-0.00472249 -0.00515551 0)
(-0.00543085 -0.00305903 0)
(-0.00595371 -0.00209868 0)
(-0.00635592 -0.00185246 0)
(-0.00668165 -0.00201094 0)
(-0.00695817 -0.00232587 0)
(-0.00720574 -0.00251446 0)
(-0.00743902 -0.00216179 0)
(-0.00764882 -0.000664926 0)
(-0.00776249 0.00271239 0)
(-0.00760451 0.00858147 0)
(-0.00692186 0.0169552 0)
(-0.00546386 0.0262557 0)
(-0.00324657 0.0315049 0)
(-0.000593238 0.0216344 0)
(-0.000176829 -0.0159978 0)
(-0.00219546 -0.0214418 0)
(-0.0049852 -0.016796 0)
(-0.00761825 -0.0106326 0)
(-0.00966073 -0.00588629 0)
(-0.0111008 -0.00296432 0)
(-0.0120848 -0.0014727 0)
(-0.0127697 -0.000925997 0)
(-0.0132757 -0.00094683 0)
(-0.0136855 -0.00127263 0)
(-0.01405 -0.00169147 0)
(-0.0143898 -0.0019573 0)
(-0.0146831 -0.00172283 0)
(-0.0148385 -0.000515146 0)
(-0.0146466 0.00221145 0)
(-0.013807 0.00690709 0)
(-0.0119699 0.0135285 0)
(-0.00892234 0.0207819 0)
(-0.00495677 0.0247684 0)
(-0.000837549 0.016932 0)
(-0.000809162 -0.0122077 0)
(-0.00517682 -0.0142604 0)
(-0.00959931 -0.00963015 0)
(-0.0130094 -0.00495029 0)
(-0.0151613 -0.00188065 0)
(-0.0163731 -0.000305876 0)
(-0.0170331 0.000267828 0)
(-0.0174246 0.000265733 0)
(-0.0177172 -4.08055e-05 0)
(-0.0180147 -0.000488859 0)
(-0.0183717 -0.000955397 0)
(-0.018788 -0.00130128 0)
(-0.0191956 -0.00132919 0)
(-0.0194331 -0.00076614 0)
(-0.019208 0.000721786 0)
(-0.0180911 0.00346097 0)
(-0.0156272 0.00748999 0)
(-0.0115676 0.0120769 0)
(-0.00634628 0.0148682 0)
(-0.00107408 0.0104973 0)
(-0.0019526 -0.00417044 0)
(-0.00695336 -0.00369832 0)
(-0.0105859 -0.00175757 0)
(-0.0125468 -0.000368974 0)
(-0.0132434 0.00029972 0)
(-0.013286 0.00050376 0)
(-0.0130831 0.000470692 0)
(-0.0128578 0.000341893 0)
(-0.0127332 0.00017964 0)
(-0.0127637 5.09883e-06 0)
(-0.0129655 -0.000170047 0)
(-0.0133279 -0.000331974 0)
(-0.0137951 -0.000453376 0)
(-0.0142415 -0.000482735 0)
(-0.014439 -0.000332327 0)
(-0.0140471 0.000135632 0)
(-0.0126118 0.00103741 0)
(-0.00976445 0.00232124 0)
(-0.0057159 0.00345272 0)
(-0.00136004 0.00292123 0)
)
;

boundaryField
{
    leftWall
    {
        type            fixedValue;
        value           uniform (0 0 0);
    }
    rightWall
    {
        type            fixedValue;
        value           uniform (0 0 0);
    }
    topWall
    {
        type            fixedValue;
        value           uniform (0 0 0);
    }
    bottomWall
    {
        type            fixedValue;
        value           uniform (0 0 0);
    }
    frontAndBackPlanes
    {
        type            empty;
    }
}


// ************************************************************************* //
