/*--------------------------------*- C++ -*----------------------------------*\
| =========                 |                                                 |
| \\      /  F ield         | OpenFOAM: The Open Source CFD Toolbox           |
|  \\    /   O peration     | Version:  2506                                  |
|   \\  /    A nd           | Website:  www.openfoam.com                      |
|    \\/     M anipulation  |                                                 |
\*---------------------------------------------------------------------------*/
FoamFile
{
    version     2.0;
    format      ascii;
    arch        "LSB;label=32;scalar=64";
    class       surfaceScalarField;
    location    "59.8";
    object      phi;
}
// * * * * * * * * * * * * * * * * * * * * * * * * * * * * * * * * * * * * * //

dimensions      [1 0 -1 0 0 0 0];

oriented        oriented;

internalField   nonuniform List<scalar> 
370
(
6.03697e-05
-0.000133385
0.000296871
-0.00023644
0.000547676
-0.000250714
0.000771776
-0.000223989
0.000956971
-0.000185071
0.00110928
-0.000152178
0.00124313
-0.000133717
0.00137517
-0.000131895
0.00152138
-0.000146074
0.00169624
-0.000174702
0.00191228
-0.000215887
0.00217904
-0.000266603
0.00249922
-0.000320009
0.00286073
-0.000361331
0.00322205
-0.000361144
0.00348723
-0.000265
0.00345738
3.00331e-05
0.00291088
0.000546678
0.0016067
0.00130435
0.0016068
0.000213953
-0.000347298
0.000630797
-0.000653172
0.00109009
-0.00070984
0.00151014
-0.000643849
0.00186558
-0.000540305
0.00216081
-0.000447191
0.00241326
-0.000385944
0.00264361
-0.000362035
0.00287066
-0.000372894
0.00310866
-0.000412482
0.00336561
-0.000472605
0.00364028
-0.000541032
0.00391681
-0.000596293
0.004155
-0.000599267
0.00427686
-0.000482744
0.00415648
-0.00014437
0.00364464
0.000542128
0.00256532
0.00162624
0.00105569
0.0028142
0.0026626
0.000276456
-0.000623688
0.000771568
-0.0011481
0.00129466
-0.00123267
0.00175783
-0.00110671
0.00213726
-0.00091941
0.00244071
-0.000750306
0.00268723
-0.000632132
0.00289655
-0.000571018
0.00308429
-0.000560312
0.00326028
-0.000588136
0.00342743
-0.000639421
0.00357964
-0.0006929
0.00369708
-0.000713379
0.00373874
-0.000640572
0.00363538
-0.00037903
0.00329239
0.000198971
0.00263031
0.00120455
0.00165088
0.00260598
0.00058232
0.00388303
0.00324505
0.000294834
-0.000918431
0.000793085
-0.0016461
0.00128634
-0.00172557
0.00169326
-0.00151321
0.00200181
-0.00122753
0.00222863
-0.000976685
0.00239652
-0.000799588
0.00252468
-0.000698755
0.00262609
-0.000661296
0.00270789
-0.000669515
0.00277208
-0.000703184
0.0028145
-0.000734882
0.00282109
-0.000719525
0.00276189
-0.000580929
0.00258707
-0.000203766
0.00223539
0.00055109
0.00167446
0.00176588
0.000954227
0.00332659
0.000279796
0.00455776
0.00352499
0.00028158
-0.0011999
0.000713474
-0.00207769
0.0010965
-0.00210816
0.0013723
-0.00178852
0.00154919
-0.00140391
0.00165493
-0.00108192
0.00171494
-0.000859091
0.00174622
-0.000729543
0.00175842
-0.000673009
0.00175665
-0.000667256
0.00174316
-0.000689207
0.00171656
-0.00070778
0.00166848
-0.000670935
0.00157935
-0.000491278
0.0014163
-4.0195e-05
0.00114314
0.000824756
0.000760115
0.00214938
0.000340233
0.0037469
4.24566e-05
0.00485588
0.0035676
0.000225585
-0.00142535
0.00050515
-0.0023569
0.000687964
-0.00229049
0.000760056
-0.00186007
0.000757013
-0.00140032
0.000714201
-0.00103856
0.000653803
-0.000798157
0.000586496
-0.000661709
0.000516843
-0.000602831
0.000447172
-0.000597058
0.000378343
-0.000619846
0.000307944
-0.000636839
0.000227971
-0.000590407
0.000125191
-0.000387931
-1.16279e-05
9.72073e-05
-0.000168796
0.000982492
-0.000306662
0.00228778
-0.000346017
0.00378672
-0.000215111
0.00472532
0.00335262
9.84873e-05
-0.0015237
0.000100268
-0.0023583
-2.90066e-05
-0.00216069
-0.00023201
-0.0016565
-0.000453443
-0.00117832
-0.000662809
-0.000828637
-0.000850342
-0.000610079
-0.00101649
-0.000495027
-0.00116444
-0.000454336
-0.00129745
-0.000463513
-0.00141915
-0.000497611
-0.00153428
-0.000521154
-0.00164667
-0.000477461
-0.0017514
-0.00028263
-0.00181926
0.00016564
-0.00178736
0.000951158
-0.00157768
0.00207863
-0.00113112
0.00334063
-0.000494232
0.00408876
0.00285853
-0.000148339
-0.00137519
-0.000573727
-0.00193248
-0.00111162
-0.00162225
-0.00162777
-0.00113979
-0.00206663
-0.000738901
-0.00242222
-0.000472502
-0.00270926
-0.000322505
-0.00294677
-0.000256993
-0.00315148
-0.000249103
-0.00333626
-0.00027822
-0.00350946
-0.000323906
-0.00367196
-0.000358138
-0.00381027
-0.000338637
-0.00388598
-0.000206413
-0.00382732
0.000107495
-0.00353615
0.000660496
-0.00292015
0.00146311
-0.00195105
0.00237194
-0.000788735
0.00292676
0.00206992
-0.000528414
-0.000846584
-0.00146968
-0.000990767
-0.00237726
-0.000714127
-0.00308851
-0.000427983
-0.00359896
-0.000227928
-0.00395684
-0.000114107
-0.00421635
-6.25118e-05
-0.00442209
-5.0774e-05
-0.00460643
-6.42998e-05
-0.00479049
-9.37128e-05
-0.00498377
-0.00013019
-0.00517957
-0.000161904
-0.00534661
-0.000171176
-0.00541984
-0.00013277
-0.00530196
-9.97694e-06
-0.00485889
0.000217835
-0.00397585
0.000580455
-0.00262711
0.00102354
-0.00104085
0.00134075
0.00102918
-0.000846377
-0.00183669
-0.00255028
-0.00297773
-0.00320516
-0.0033188
-0.00338087
-0.00343123
-0.00349513
-0.00358846
-0.00371829
-0.00387984
-0.00405069
-0.00418314
-0.00419282
-0.00397469
-0.00339397
-0.00237019
-0.00102926
)
;

boundaryField
{
    leftWall
    {
        type            calculated;
        value           uniform 0;
    }
    rightWall
    {
        type            calculated;
        value           nonuniform List<scalar> 10(0 0 0 4.33681e-19 0 0 0 0 0 0);
    }
    topWall
    {
        type            calculated;
        value           uniform 0;
    }
    bottomWall
    {
        type            calculated;
        value           uniform 0;
    }
    frontAndBackPlanes
    {
        type            empty;
    }
}


// ************************************************************************* //
