/*--------------------------------*- C++ -*----------------------------------*\
| =========                 |                                                 |
| \\      /  F ield         | OpenFOAM: The Open Source CFD Toolbox           |
|  \\    /   O peration     | Version:  2506                                  |
|   \\  /    A nd           | Website:  www.openfoam.com                      |
|    \\/     M anipulation  |                                                 |
\*---------------------------------------------------------------------------*/
FoamFile
{
    version     2.0;
    format      ascii;
    arch        "LSB;label=32;scalar=64";
    class       volScalarField;
    location    "99";
    object      T;
}
// * * * * * * * * * * * * * * * * * * * * * * * * * * * * * * * * * * * * * //

dimensions      [0 0 0 1 0 0 0];

internalField   nonuniform List<scalar> 
200
(
273.161
273.181
273.196
273.206
273.212
273.217
273.219
273.222
273.224
273.226
273.229
273.231
273.234
273.238
273.243
273.252
273.275
273.337
273.494
273.842
273.169
273.204
273.228
273.243
273.251
273.255
273.257
273.258
273.259
273.261
273.263
273.265
273.267
273.269
273.271
273.276
273.296
273.356
273.518
273.869
273.181
273.237
273.276
273.3
273.311
273.316
273.316
273.316
273.315
273.315
273.315
273.316
273.316
273.314
273.313
273.315
273.332
273.395
273.563
273.902
273.194
273.273
273.329
273.361
273.376
273.381
273.38
273.378
273.375
273.373
273.372
273.37
273.366
273.361
273.355
273.354
273.372
273.439
273.611
273.933
273.207
273.31
273.381
273.421
273.439
273.443
273.441
273.437
273.433
273.43
273.427
273.422
273.416
273.407
273.398
273.395
273.416
273.49
273.664
273.961
273.221
273.348
273.435
273.481
273.498
273.501
273.498
273.494
273.49
273.487
273.484
273.479
273.471
273.459
273.45
273.451
273.478
273.557
273.721
273.984
273.236
273.389
273.489
273.537
273.554
273.557
273.556
273.555
273.554
273.554
273.553
273.55
273.543
273.536
273.531
273.537
273.566
273.64
273.783
274.008
273.256
273.433
273.539
273.59
273.61
273.619
273.624
273.629
273.635
273.639
273.643
273.645
273.644
273.643
273.643
273.652
273.678
273.739
273.853
274.033
273.278
273.473
273.585
273.64
273.668
273.685
273.698
273.71
273.721
273.732
273.742
273.751
273.759
273.766
273.773
273.785
273.807
273.852
273.933
274.063
273.293
273.494
273.607
273.665
273.698
273.72
273.738
273.754
273.77
273.786
273.802
273.818
273.835
273.852
273.87
273.889
273.914
273.951
274.007
274.092
)
;

boundaryField
{
    leftWall
    {
        type            fixedValue;
        value           uniform 273.15;
    }
    rightWall
    {
        type            customNeumannDirichletCoupledBoundary;
        refValue        nonuniform List<scalar> 10(274.129 274.13 274.132 274.134 274.136 274.138 274.139 274.141 274.143 274.144);
        refGradient     uniform 0;
        valueFraction   uniform 1;
        source          uniform 0;
        value           nonuniform List<scalar> 10(274.129 274.13 274.132 274.134 274.136 274.138 274.139 274.141 274.143 274.144);
        kappaMethod     fluidThermo;
    }
    topWall
    {
        type            zeroGradient;
    }
    bottomWall
    {
        type            zeroGradient;
    }
    frontAndBackPlanes
    {
        type            empty;
    }
}


// ************************************************************************* //
