/*--------------------------------*- C++ -*----------------------------------*\
| =========                 |                                                 |
| \\      /  F ield         | OpenFOAM: The Open Source CFD Toolbox           |
|  \\    /   O peration     | Version:  2506                                  |
|   \\  /    A nd           | Website:  www.openfoam.com                      |
|    \\/     M anipulation  |                                                 |
\*---------------------------------------------------------------------------*/
FoamFile
{
    version     2.0;
    format      ascii;
    arch        "LSB;label=32;scalar=64";
    class       volVectorField;
    location    "99";
    object      U;
}
// * * * * * * * * * * * * * * * * * * * * * * * * * * * * * * * * * * * * * //

dimensions      [0 1 -1 0 0 0 0];

internalField   nonuniform List<vector> 
200
(
(0.000335977 -0.000969081 0)
(0.00192047 -0.00126367 0)
(0.00369653 -0.000957279 0)
(0.00516849 -0.000551244 0)
(0.00612889 -0.000233272 0)
(0.00668257 -4.95634e-05 0)
(0.00699275 1.10476e-05 0)
(0.00721038 -2.07454e-05 0)
(0.0074525 -0.000115204 0)
(0.00780222 -0.000252561 0)
(0.0083164 -0.000424536 0)
(0.00903372 -0.000630403 0)
(0.00997609 -0.000867498 0)
(0.0111351 -0.00111391 0)
(0.0124285 -0.00129812 0)
(0.0136004 -0.00124519 0)
(0.0140711 -0.000592016 0)
(0.0129334 0.0012115 0)
(0.00926437 0.00425612 0)
(0.00279393 0.00592645 0)
(0.000445683 -0.00397246 0)
(0.00291847 -0.0063176 0)
(0.00569237 -0.00582335 0)
(0.00814134 -0.0043334 0)
(0.00995995 -0.00282213 0)
(0.0111899 -0.00170963 0)
(0.0120035 -0.00109457 0)
(0.0125849 -0.000921357 0)
(0.0130834 -0.00108305 0)
(0.0136024 -0.00147511 0)
(0.014201 -0.00201331 0)
(0.0148972 -0.00262378 0)
(0.0156618 -0.00320663 0)
(0.0163967 -0.00357124 0)
(0.0168937 -0.00334201 0)
(0.0167814 -0.0018522 0)
(0.0154613 0.00186968 0)
(0.0122641 0.00854463 0)
(0.00714298 0.0166691 0)
(0.00122006 0.017007 0)
(0.000456157 -0.00725686 0)
(0.00295536 -0.0119157 0)
(0.00567798 -0.0113626 0)
(0.00807797 -0.00883408 0)
(0.00987972 -0.006121 0)
(0.0111248 -0.00400914 0)
(0.0119665 -0.0027058 0)
(0.0125586 -0.00213607 0)
(0.0130174 -0.00212119 0)
(0.0134161 -0.00247083 0)
(0.0137884 -0.00301422 0)
(0.0141311 -0.00358413 0)
(0.0143975 -0.00395998 0)
(0.0144791 -0.00377589 0)
(0.0141785 -0.00241425 0)
(0.0131721 0.00104404 0)
(0.0111379 0.00752338 0)
(0.00791781 0.0171094 0)
(0.00393936 0.0264952 0)
(0.000460109 0.0229402 0)
(0.000423543 -0.0104053 0)
(0.00262728 -0.0170411 0)
(0.00486395 -0.0162281 0)
(0.00671786 -0.0126466 0)
(0.00802375 -0.00883134 0)
(0.00887364 -0.00585252 0)
(0.00941964 -0.00396271 0)
(0.00978375 -0.00303278 0)
(0.0100403 -0.00280468 0)
(0.0102259 -0.00301546 0)
(0.0103523 -0.00343273 0)
(0.0104113 -0.00382549 0)
(0.0103679 -0.0038849 0)
(0.0101424 -0.00311586 0)
(0.00959247 -0.000750128 0)
(0.008504 0.00418986 0)
(0.00674757 0.01244 0)
(0.00434101 0.0234691 0)
(0.00176407 0.0326239 0)
(8.3344e-05 0.025673 0)
(0.00037088 -0.013116 0)
(0.0020761 -0.0210701 0)
(0.00355231 -0.0196955 0)
(0.00458652 -0.0150804 0)
(0.00517472 -0.0103727 0)
(0.00547007 -0.00679311 0)
(0.00561452 -0.00454575 0)
(0.00568736 -0.00340412 0)
(0.00571717 -0.00303116 0)
(0.00570863 -0.00311869 0)
(0.00566026 -0.00341042 0)
(0.00556705 -0.00364773 0)
(0.00540931 -0.00346486 0)
(0.00513394 -0.00227227 0)
(0.00463155 0.000795029 0)
(0.00381129 0.00667674 0)
(0.00263666 0.0159082 0)
(0.00125189 0.0273919 0)
(7.17044e-05 0.0356549 0)
(-0.000169913 0.0263402 0)
(0.000289418 -0.0151761 0)
(0.00125993 -0.0235622 0)
(0.00170397 -0.0213228 0)
(0.00170656 -0.0158093 0)
(0.00145805 -0.0105476 0)
(0.00114594 -0.00672498 0)
(0.000865153 -0.00440295 0)
(0.000632481 -0.00323953 0)
(0.000431623 -0.00284359 0)
(0.00024528 -0.00289843 0)
(6.42583e-05 -0.0031518 0)
(-0.000119754 -0.00333152 0)
(-0.000326324 -0.00302603 0)
(-0.000591448 -0.00158254 0)
(-0.000962587 0.00189072 0)
(-0.00141534 0.00823239 0)
(-0.00183208 0.0176901 0)
(-0.00196341 0.0287191 0)
(-0.00153762 0.0356776 0)
(-0.000365971 0.0252701 0)
(0.00015787 -0.0161959 0)
(-6.66303e-07 -0.0238851 0)
(-0.000955894 -0.0205577 0)
(-0.00219032 -0.0144888 0)
(-0.00335648 -0.00919396 0)
(-0.00430375 -0.00558199 0)
(-0.00502601 -0.00349896 0)
(-0.00557748 -0.00251551 0)
(-0.00601526 -0.00223636 0)
(-0.00637904 -0.00236716 0)
(-0.00669391 -0.00266725 0)
(-0.00698002 -0.00285417 0)
(-0.00725385 -0.00250329 0)
(-0.00750909 -0.000988055 0)
(-0.00767601 0.0024658 0)
(-0.00757212 0.00850888 0)
(-0.00693512 0.0171759 0)
(-0.00550413 0.0268588 0)
(-0.00328847 0.0324263 0)
(-0.000605211 0.0223858 0)
(-0.000157353 -0.0154538 0)
(-0.00205971 -0.02102 0)
(-0.00474296 -0.0167518 0)
(-0.00731674 -0.0108647 0)
(-0.00934988 -0.00625006 0)
(-0.0108149 -0.00336037 0)
(-0.0118431 -0.00184683 0)
(-0.0125815 -0.00125908 0)
(-0.0131434 -0.00123981 0)
(-0.0136084 -0.0015359 0)
(-0.0140269 -0.00193958 0)
(-0.0144201 -0.00220097 0)
(-0.014768 -0.00196093 0)
(-0.0149797 -0.000725628 0)
(-0.0148424 0.00207815 0)
(-0.0140407 0.00692565 0)
(-0.0122116 0.0137911 0)
(-0.00912974 0.0213552 0)
(-0.00508848 0.0255888 0)
(-0.000864072 0.0175785 0)
(-0.000776608 -0.0118277 0)
(-0.00501637 -0.0140597 0)
(-0.00937339 -0.0097156 0)
(-0.0127913 -0.00519929 0)
(-0.0150036 -0.00217663 0)
(-0.0162941 -0.000583251 0)
(-0.0170344 3.16187e-05 0)
(-0.0175048 7.23059e-05 0)
(-0.0178676 -0.000199959 0)
(-0.0182285 -0.000626795 0)
(-0.0186465 -0.00108378 0)
(-0.0191215 -0.00142757 0)
(-0.0195865 -0.00145245 0)
(-0.019878 -0.000872643 0)
(-0.0196961 0.00066162 0)
(-0.018593 0.00349328 0)
(-0.0160958 0.00767583 0)
(-0.0119409 0.0124636 0)
(-0.0065683 0.0154192 0)
(-0.00111609 0.0109367 0)
(-0.0018862 -0.00403213 0)
(-0.00676626 -0.00365335 0)
(-0.0103922 -0.00180454 0)
(-0.0124205 -0.000450491 0)
(-0.0132104 0.000222278 0)
(-0.0133498 0.000446958 0)
(-0.013233 0.000430605 0)
(-0.0130734 0.00031444 0)
(-0.0130013 0.000160771 0)
(-0.0130749 -1.10285e-05 0)
(-0.0133123 -0.000186432 0)
(-0.0137097 -0.000350878 0)
(-0.0142135 -0.000476015 0)
(-0.0146962 -0.000507961 0)
(-0.0149226 -0.000354932 0)
(-0.0145413 0.000127571 0)
(-0.0130797 0.00106501 0)
(-0.0101483 0.00240758 0)
(-0.00595652 0.00359959 0)
(-0.00142292 0.00305763 0)
)
;

boundaryField
{
    leftWall
    {
        type            fixedValue;
        value           uniform (0 0 0);
    }
    rightWall
    {
        type            fixedValue;
        value           uniform (0 0 0);
    }
    topWall
    {
        type            fixedValue;
        value           uniform (0 0 0);
    }
    bottomWall
    {
        type            fixedValue;
        value           uniform (0 0 0);
    }
    frontAndBackPlanes
    {
        type            empty;
    }
}


// ************************************************************************* //
