/*--------------------------------*- C++ -*----------------------------------*\
| =========                 |                                                 |
| \\      /  F ield         | OpenFOAM: The Open Source CFD Toolbox           |
|  \\    /   O peration     | Version:  2506                                  |
|   \\  /    A nd           | Website:  www.openfoam.com                      |
|    \\/     M anipulation  |                                                 |
\*---------------------------------------------------------------------------*/
FoamFile
{
    version     2.0;
    format      ascii;
    arch        "LSB;label=32;scalar=64";
    class       volScalarField;
    location    "45";
    object      p_rgh;
}
// * * * * * * * * * * * * * * * * * * * * * * * * * * * * * * * * * * * * * //

dimensions      [1 -1 -2 0 0 0 0];

internalField   nonuniform List<scalar> 
200
(
100000
100000
100000
100000
100000
100000
100000
100000
100000
100000
100000
100000
99999.9
99999.9
99999.8
99999.7
99999.5
99999.2
99998.8
99998.2
100000
100000
100000
100000
100000
100000
100000
100000
100000
100000
100000
99999.9
99999.9
99999.9
99999.8
99999.8
99999.6
99999.3
99998.6
99997
100000
100000
100000
100000
100000
99999.9
99999.9
99999.9
99999.9
99999.9
99999.9
99999.9
99999.9
99999.9
99999.8
99999.8
99999.6
99999.2
99997.9
99995.3
100000
100000
99999.9
99999.8
99999.7
99999.7
99999.7
99999.7
99999.7
99999.7
99999.7
99999.7
99999.7
99999.8
99999.8
99999.8
99999.5
99998.8
99997
99993.4
100000
100000
99999.7
99999.5
99999.3
99999.3
99999.2
99999.2
99999.2
99999.3
99999.3
99999.4
99999.5
99999.6
99999.7
99999.7
99999.3
99998.2
99995.8
99991.3
100000
99999.9
99999.4
99999
99998.7
99998.6
99998.6
99998.6
99998.6
99998.7
99998.7
99998.8
99999
99999.2
99999.4
99999.3
99998.7
99997.3
99994.2
99989.2
100001
99999.7
99998.9
99998.2
99997.9
99997.7
99997.6
99997.6
99997.6
99997.6
99997.7
99997.8
99998
99998.1
99998.2
99998
99997.3
99995.7
99992.4
99987.2
100001
99999.5
99998.2
99997.3
99996.8
99996.4
99996.3
99996.1
99996
99995.9
99995.8
99995.8
99995.8
99995.9
99995.9
99995.7
99995
99993.4
99990.3
99985.3
100001
99999.1
99997.4
99996.2
99995.4
99994.8
99994.3
99994
99993.6
99993.3
99993.1
99992.8
99992.6
99992.5
99992.3
99992.1
99991.5
99990.2
99987.7
99983.5
100002
99999
99996.9
99995.5
99994.4
99993.6
99993
99992.4
99991.9
99991.4
99990.9
99990.4
99990
99989.5
99989.1
99988.6
99988
99986.9
99985.1
99982
)
;

boundaryField
{
    leftWall
    {
        type            fixedFluxPressure;
        gradient        nonuniform List<scalar> 10(0.00280822 0.177216 0.905871 2.7111 6.1448 11.6924 19.8278 31.5479 46.9522 59.8474);
        value           nonuniform List<scalar> 10(100000 100000 100000 100000 100000 100001 100001 100002 100002 100003);
    }
    rightWall
    {
        type            fixedFluxPressure;
        gradient        nonuniform List<scalar> 10(-17.5755 -49.3282 -74.8879 -95.0722 -109.634 -119.48 -124.731 -121.644 -105.974 -79.9577);
        value           nonuniform List<scalar> 10(99997.8 99995.8 99993.5 99991 99988.6 99986.2 99984.1 99982.2 99980.9 99980.1);
    }
    topWall
    {
        type            fixedFluxPressure;
        gradient        uniform 0;
        value           nonuniform List<scalar> 
20
(
100000
100000
100000
100000
100000
100000
100000
100000
100000
100000
100000
100000
99999.9
99999.9
99999.8
99999.7
99999.5
99999.2
99998.8
99998.2
)
;
    }
    bottomWall
    {
        type            fixedFluxPressure;
        gradient        uniform 0;
        value           nonuniform List<scalar> 
20
(
100002
99999
99996.9
99995.5
99994.4
99993.6
99993
99992.4
99991.9
99991.4
99990.9
99990.4
99990
99989.5
99989.1
99988.6
99988
99986.9
99985.1
99982
)
;
    }
    frontAndBackPlanes
    {
        type            empty;
    }
}


// ************************************************************************* //
