/*--------------------------------*- C++ -*----------------------------------*\
| =========                 |                                                 |
| \\      /  F ield         | OpenFOAM: The Open Source CFD Toolbox           |
|  \\    /   O peration     | Version:  2506                                  |
|   \\  /    A nd           | Website:  www.openfoam.com                      |
|    \\/     M anipulation  |                                                 |
\*---------------------------------------------------------------------------*/
FoamFile
{
    version     2.0;
    format      ascii;
    arch        "LSB;label=32;scalar=64";
    class       volScalarField;
    location    "45";
    object      T;
}
// * * * * * * * * * * * * * * * * * * * * * * * * * * * * * * * * * * * * * //

dimensions      [0 0 0 1 0 0 0];

internalField   nonuniform List<scalar> 
200
(
273.15
273.15
273.15
273.15
273.151
273.15
273.15
273.15
273.15
273.15
273.15
273.15
273.15
273.151
273.154
273.162
273.185
273.247
273.412
273.796
273.151
273.153
273.156
273.158
273.159
273.159
273.16
273.16
273.159
273.159
273.159
273.158
273.158
273.157
273.158
273.163
273.183
273.246
273.421
273.818
273.153
273.16
273.167
273.172
273.176
273.178
273.179
273.178
273.178
273.177
273.176
273.174
273.172
273.169
273.168
273.171
273.192
273.262
273.45
273.847
273.157
273.172
273.186
273.196
273.203
273.207
273.208
273.207
273.206
273.204
273.201
273.198
273.192
273.186
273.181
273.183
273.207
273.286
273.486
273.875
273.163
273.189
273.212
273.229
273.24
273.245
273.247
273.246
273.243
273.24
273.235
273.228
273.219
273.208
273.199
273.202
273.231
273.32
273.529
273.903
273.17
273.21
273.245
273.271
273.286
273.293
273.294
273.293
273.29
273.286
273.28
273.271
273.259
273.244
273.232
273.237
273.276
273.377
273.586
273.93
273.179
273.236
273.285
273.32
273.34
273.349
273.352
273.352
273.351
273.35
273.346
273.339
273.329
273.318
273.312
273.323
273.365
273.464
273.653
273.956
273.189
273.266
273.33
273.374
273.4
273.415
273.425
273.433
273.439
273.445
273.448
273.449
273.448
273.445
273.446
273.459
273.497
273.58
273.736
273.986
273.202
273.297
273.373
273.428
273.466
273.493
273.514
273.532
273.548
273.563
273.577
273.588
273.599
273.608
273.618
273.632
273.662
273.724
273.837
274.023
273.209
273.312
273.394
273.456
273.502
273.538
273.569
273.595
273.62
273.643
273.666
273.689
273.712
273.735
273.758
273.782
273.814
273.863
273.94
274.062
)
;

boundaryField
{
    leftWall
    {
        type            fixedValue;
        value           uniform 273.15;
    }
    rightWall
    {
        type            customNeumannDirichletCoupledBoundary;
        refValue        nonuniform List<scalar> 10(274.125 274.126 274.128 274.13 274.132 274.134 274.136 274.138 274.14 274.141);
        refGradient     uniform 0;
        valueFraction   uniform 1;
        source          uniform 0;
        value           nonuniform List<scalar> 10(274.125 274.126 274.128 274.13 274.132 274.134 274.136 274.138 274.14 274.141);
        kappaMethod     fluidThermo;
    }
    topWall
    {
        type            zeroGradient;
    }
    bottomWall
    {
        type            zeroGradient;
    }
    frontAndBackPlanes
    {
        type            empty;
    }
}


// ************************************************************************* //
