/*--------------------------------*- C++ -*----------------------------------*\
| =========                 |                                                 |
| \\      /  F ield         | OpenFOAM: The Open Source CFD Toolbox           |
|  \\    /   O peration     | Version:  2506                                  |
|   \\  /    A nd           | Website:  www.openfoam.com                      |
|    \\/     M anipulation  |                                                 |
\*---------------------------------------------------------------------------*/
FoamFile
{
    version     2.0;
    format      ascii;
    arch        "LSB;label=32;scalar=64";
    class       volVectorField;
    location    "45";
    object      U;
}
// * * * * * * * * * * * * * * * * * * * * * * * * * * * * * * * * * * * * * //

dimensions      [0 1 -1 0 0 0 0];

internalField   nonuniform List<vector> 
200
(
(-0.000171903 -0.000222397 0)
(0.000188493 -0.00037241 0)
(0.00104095 -0.000405 0)
(0.00199965 -0.000406142 0)
(0.00290909 -0.00037504 0)
(0.00375406 -0.00033664 0)
(0.00453337 -0.000316969 0)
(0.0052754 -0.000331629 0)
(0.0060288 -0.000389145 0)
(0.00685095 -0.000494509 0)
(0.00779936 -0.000650311 0)
(0.0089234 -0.000854886 0)
(0.0102512 -0.00109623 0)
(0.0117665 -0.00133919 0)
(0.0133652 -0.00150196 0)
(0.0147611 -0.00140894 0)
(0.0153369 -0.000698025 0)
(0.0141465 0.00123083 0)
(0.0101929 0.0045447 0)
(0.00308434 0.00650547 0)
(0.000122473 -0.00117512 0)
(0.00119988 -0.00255886 0)
(0.0028311 -0.00322376 0)
(0.00465285 -0.00338252 0)
(0.00641793 -0.00323831 0)
(0.00802792 -0.00299138 0)
(0.00947273 -0.00278667 0)
(0.0107893 -0.00271094 0)
(0.0120352 -0.00280533 0)
(0.0132694 -0.0030768 0)
(0.0145366 -0.00350117 0)
(0.0158504 -0.00401418 0)
(0.017171 -0.00448691 0)
(0.0183731 -0.00468189 0)
(0.0192042 -0.00418615 0)
(0.0192383 -0.00232302 0)
(0.0178236 0.00189814 0)
(0.0142165 0.0092706 0)
(0.00835846 0.0182968 0)
(0.00145772 0.018978 0)
(0.000225754 -0.00274136 0)
(0.00176691 -0.00591182 0)
(0.00383466 -0.00729386 0)
(0.00601459 -0.00747056 0)
(0.00800984 -0.0070064 0)
(0.00972596 -0.00633672 0)
(0.0111774 -0.00574172 0)
(0.0124209 -0.00537008 0)
(0.0135211 -0.00527409 0)
(0.0145314 -0.0054356 0)
(0.0154809 -0.00577354 0)
(0.0163611 -0.00612896 0)
(0.0171066 -0.00622636 0)
(0.0175701 -0.0056156 0)
(0.0174948 -0.00360932 0)
(0.0164836 0.000739553 0)
(0.0141196 0.008379 0)
(0.0102085 0.0193543 0)
(0.00524583 0.0301083 0)
(0.000679888 0.0263993 0)
(0.000280206 -0.00482317 0)
(0.00204655 -0.00995638 0)
(0.0042141 -0.0118258 0)
(0.0063213 -0.011694 0)
(0.00808077 -0.0106094 0)
(0.00944689 -0.00929134 0)
(0.0104851 -0.00815244 0)
(0.0112876 -0.00737846 0)
(0.0119361 -0.00700585 0)
(0.0124884 -0.00697255 0)
(0.012973 -0.0071335 0)
(0.0133832 -0.00723965 0)
(0.0136642 -0.00688598 0)
(0.013694 -0.00544655 0)
(0.0132651 -0.00204134 0)
(0.0120595 0.00437078 0)
(0.00985964 0.0144858 0)
(0.00665049 0.0275907 0)
(0.00302017 0.0384534 0)
(0.000280525 0.0306 0)
(0.000314876 -0.00711105 0)
(0.00206394 -0.0140335 0)
(0.00396815 -0.0159978 0)
(0.00560088 -0.0151824 0)
(0.00675371 -0.0132234 0)
(0.0074671 -0.0111368 0)
(0.00787008 -0.00943396 0)
(0.00808824 -0.00829348 0)
(0.00821316 -0.0077023 0)
(0.00830049 -0.00753908 0)
(0.00837552 -0.0075971 0)
(0.00843453 -0.00755351 0)
(0.008438 -0.00690022 0)
(0.00829748 -0.00487113 0)
(0.00786068 -0.000440135 0)
(0.00689856 0.0074474 0)
(0.00531003 0.0192079 0)
(0.00318991 0.0333927 0)
(0.00107656 0.0435921 0)
(-2.50767e-05 0.0325287 0)
(0.000308794 -0.009306 0)
(0.00170643 -0.0174777 0)
(0.00290622 -0.0190205 0)
(0.00363972 -0.0172084 0)
(0.00386131 -0.0142847 0)
(0.00371935 -0.0115041 0)
(0.00339035 -0.00939749 0)
(0.00300321 -0.00807497 0)
(0.00263103 -0.00744181 0)
(0.00230678 -0.00731031 0)
(0.00203777 -0.00742032 0)
(0.00181015 -0.0073916 0)
(0.00158674 -0.00663848 0)
(0.00130682 -0.00429623 0)
(0.000883348 0.000745713 0)
(0.000280996 0.00948614 0)
(-0.000425311 0.0220426 0)
(-0.00100254 0.0362626 0)
(-0.00110164 0.0452058 0)
(-0.000329261 0.0322635 0)
(0.000223878 -0.0109147 0)
(0.000754029 -0.0193235 0)
(0.000678049 -0.0199041 0)
(4.97598e-05 -0.0169967 0)
(-0.000928472 -0.013297 0)
(-0.00202593 -0.0101502 0)
(-0.0030926 -0.00797794 0)
(-0.00405668 -0.0067552 0)
(-0.00490028 -0.00628887 0)
(-0.00563232 -0.00633255 0)
(-0.00627306 -0.00658679 0)
(-0.00684775 -0.00663518 0)
(-0.00737836 -0.00586326 0)
(-0.00786022 -0.00341833 0)
(-0.00822154 0.00169302 0)
(-0.00823753 0.0102155 0)
(-0.00761033 0.0219929 0)
(-0.00607672 0.0348465 0)
(-0.00367277 0.0422611 0)
(-0.000700594 0.0293988 0)
(-1.28787e-05 -0.0110766 0)
(-0.00107918 -0.0181809 0)
(-0.00305122 -0.017422 0)
(-0.0053659 -0.0138059 0)
(-0.00759236 -0.0100021 0)
(-0.00954202 -0.00709078 0)
(-0.0111886 -0.00527933 0)
(-0.0125801 -0.00441506 0)
(-0.0137864 -0.00424938 0)
(-0.0148732 -0.00452216 0)
(-0.0158878 -0.0049431 0)
(-0.0168457 -0.0051313 0)
(-0.0177067 -0.00455869 0)
(-0.0183352 -0.00254193 0)
(-0.0184406 0.00166019 0)
(-0.0175777 0.00858168 0)
(-0.0153253 0.0180698 0)
(-0.0114594 0.0283296 0)
(-0.00640149 0.0341157 0)
(-0.00110586 0.0236148 0)
(-0.000515239 -0.00868495 0)
(-0.0037829 -0.0128085 0)
(-0.0077658 -0.011073 0)
(-0.0114545 -0.00780259 0)
(-0.0143536 -0.00490374 0)
(-0.0164869 -0.00295078 0)
(-0.018065 -0.00191935 0)
(-0.0193133 -0.00159552 0)
(-0.0204153 -0.00175263 0)
(-0.0214994 -0.00219164 0)
(-0.0226342 -0.002716 0)
(-0.023814 -0.00308621 0)
(-0.0249303 -0.00298331 0)
(-0.0257363 -0.00200164 0)
(-0.0258078 0.000316586 0)
(-0.0245145 0.00438592 0)
(-0.0212793 0.0102441 0)
(-0.0158084 0.0168557 0)
(-0.0087233 0.0209646 0)
(-0.00150071 0.014984 0)
(-0.00130714 -0.00285303 0)
(-0.0052357 -0.00338612 0)
(-0.0090126 -0.00236647 0)
(-0.0118223 -0.00124847 0)
(-0.0135287 -0.000468106 0)
(-0.014452 -4.33753e-05 0)
(-0.0149469 0.000116044 0)
(-0.0152808 0.000101725 0)
(-0.0156331 -2.04956e-05 0)
(-0.0161181 -0.000208733 0)
(-0.0167964 -0.000432637 0)
(-0.0176699 -0.00065729 0)
(-0.0186626 -0.000828714 0)
(-0.0195887 -0.000862604 0)
(-0.020111 -0.000629693 0)
(-0.0197418 6.62615e-05 0)
(-0.0178401 0.00141607 0)
(-0.0138926 0.00333489 0)
(-0.00819762 0.00502851 0)
(-0.00198372 0.00428534 0)
)
;

boundaryField
{
    leftWall
    {
        type            fixedValue;
        value           uniform (0 0 0);
    }
    rightWall
    {
        type            fixedValue;
        value           uniform (0 0 0);
    }
    topWall
    {
        type            fixedValue;
        value           uniform (0 0 0);
    }
    bottomWall
    {
        type            fixedValue;
        value           uniform (0 0 0);
    }
    frontAndBackPlanes
    {
        type            empty;
    }
}


// ************************************************************************* //
