/*--------------------------------*- C++ -*----------------------------------*\
| =========                 |                                                 |
| \\      /  F ield         | OpenFOAM: The Open Source CFD Toolbox           |
|  \\    /   O peration     | Version:  2506                                  |
|   \\  /    A nd           | Website:  www.openfoam.com                      |
|    \\/     M anipulation  |                                                 |
\*---------------------------------------------------------------------------*/
FoamFile
{
    version     2.0;
    format      ascii;
    arch        "LSB;label=32;scalar=64";
    class       volScalarField;
    location    "112.8";
    object      T;
}
// * * * * * * * * * * * * * * * * * * * * * * * * * * * * * * * * * * * * * //

dimensions      [0 0 0 1 0 0 0];

internalField   nonuniform List<scalar> 
200
(
273.164
273.189
273.208
273.22
273.229
273.235
273.239
273.242
273.245
273.248
273.251
273.255
273.258
273.263
273.268
273.278
273.301
273.363
273.517
273.854
273.174
273.215
273.245
273.262
273.272
273.277
273.279
273.28
273.282
273.284
273.287
273.289
273.292
273.295
273.297
273.303
273.322
273.383
273.541
273.88
273.187
273.252
273.297
273.324
273.337
273.342
273.343
273.342
273.342
273.342
273.342
273.343
273.343
273.342
273.341
273.344
273.361
273.423
273.586
273.913
273.2
273.291
273.353
273.389
273.406
273.411
273.41
273.408
273.405
273.403
273.401
273.399
273.396
273.391
273.385
273.385
273.402
273.468
273.635
273.943
273.214
273.329
273.409
273.452
273.471
273.475
273.472
273.468
273.464
273.46
273.457
273.453
273.446
273.438
273.429
273.427
273.447
273.519
273.687
273.971
273.229
273.369
273.464
273.512
273.531
273.533
273.529
273.524
273.52
273.517
273.514
273.509
273.501
273.49
273.482
273.484
273.51
273.586
273.743
273.993
273.245
273.412
273.518
273.568
273.585
273.588
273.586
273.584
273.584
273.583
273.582
273.579
273.573
273.566
273.562
273.568
273.596
273.666
273.803
274.016
273.266
273.457
273.568
273.62
273.64
273.648
273.653
273.657
273.662
273.667
273.67
273.672
273.671
273.67
273.67
273.678
273.704
273.762
273.87
274.041
273.288
273.497
273.614
273.67
273.697
273.713
273.725
273.736
273.746
273.756
273.765
273.773
273.781
273.788
273.794
273.805
273.827
273.87
273.947
274.069
273.304
273.518
273.635
273.694
273.726
273.746
273.762
273.777
273.792
273.807
273.822
273.837
273.853
273.869
273.886
273.904
273.928
273.963
274.016
274.096
)
;

boundaryField
{
    leftWall
    {
        type            fixedValue;
        value           uniform 273.15;
    }
    rightWall
    {
        type            customNeumannDirichletCoupledBoundary;
        refValue        nonuniform List<scalar> 10(274.13 274.131 274.133 274.135 274.137 274.138 274.14 274.142 274.143 274.144);
        refGradient     uniform 0;
        valueFraction   uniform 1;
        source          uniform 0;
        value           nonuniform List<scalar> 10(274.13 274.131 274.133 274.135 274.137 274.138 274.14 274.142 274.143 274.144);
        kappaMethod     fluidThermo;
    }
    topWall
    {
        type            zeroGradient;
    }
    bottomWall
    {
        type            zeroGradient;
    }
    frontAndBackPlanes
    {
        type            empty;
    }
}


// ************************************************************************* //
