/*--------------------------------*- C++ -*----------------------------------*\
| =========                 |                                                 |
| \\      /  F ield         | OpenFOAM: The Open Source CFD Toolbox           |
|  \\    /   O peration     | Version:  2506                                  |
|   \\  /    A nd           | Website:  www.openfoam.com                      |
|    \\/     M anipulation  |                                                 |
\*---------------------------------------------------------------------------*/
FoamFile
{
    version     2.0;
    format      ascii;
    arch        "LSB;label=32;scalar=64";
    class       volVectorField;
    location    "112.8";
    object      U;
}
// * * * * * * * * * * * * * * * * * * * * * * * * * * * * * * * * * * * * * //

dimensions      [0 1 -1 0 0 0 0];

internalField   nonuniform List<vector> 
200
(
(0.000434135 -0.00113784 0)
(0.0022761 -0.0014602 0)
(0.00426585 -0.00108431 0)
(0.00586915 -0.000596955 0)
(0.00687394 -0.000220141 0)
(0.00740535 -3.85162e-06 0)
(0.00765435 6.96188e-05 0)
(0.00779307 3.88751e-05 0)
(0.00795135 -5.96942e-05 0)
(0.00821852 -0.000201708 0)
(0.00865292 -0.000376365 0)
(0.00929165 -0.000581923 0)
(0.0101539 -0.000815765 0)
(0.0112291 -0.00105698 0)
(0.0124339 -0.00123584 0)
(0.0135157 -0.00117967 0)
(0.0139086 -0.000529975 0)
(0.0127236 0.00124073 0)
(0.00907074 0.00420388 0)
(0.00272448 0.00578424 0)
(0.00050226 -0.00455478 0)
(0.00323652 -0.0071121 0)
(0.00624796 -0.00642135 0)
(0.00885868 -0.00463754 0)
(0.010746 -0.0028723 0)
(0.0119683 -0.00158529 0)
(0.0127239 -0.000871035 0)
(0.0132196 -0.000653868 0)
(0.0136207 -0.000804423 0)
(0.0140391 -0.00119952 0)
(0.0145372 -0.00174235 0)
(0.0151331 -0.00235243 0)
(0.0157969 -0.00292875 0)
(0.0164302 -0.00328439 0)
(0.0168281 -0.00305225 0)
(0.0166296 -0.00158035 0)
(0.0152452 0.00207462 0)
(0.0120347 0.00858873 0)
(0.00697531 0.0164495 0)
(0.00118429 0.0166119 0)
(0.00048963 -0.0081279 0)
(0.0031414 -0.013125 0)
(0.00598951 -0.0122844 0)
(0.00846277 -0.0093132 0)
(0.0102809 -0.00621087 0)
(0.0114997 -0.00382603 0)
(0.0122896 -0.00236199 0)
(0.0128179 -0.00171524 0)
(0.013209 -0.00167455 0)
(0.0135397 -0.00202248 0)
(0.0138449 -0.00256957 0)
(0.0141211 -0.00313874 0)
(0.014321 -0.00350796 0)
(0.0143366 -0.00331814 0)
(0.0139732 -0.00196793 0)
(0.012913 0.00142837 0)
(0.0108647 0.00774476 0)
(0.00768274 0.0170473 0)
(0.00379525 0.0260617 0)
(0.000435561 0.0223642 0)
(0.000439142 -0.0114205 0)
(0.00268935 -0.0184148 0)
(0.00493178 -0.0172323 0)
(0.00675719 -0.0131191 0)
(0.00801369 -0.00885341 0)
(0.00880877 -0.00557113 0)
(0.00930485 -0.00351173 0)
(0.00962783 -0.00250714 0)
(0.00985149 -0.00225931 0)
(0.01001 -0.00247388 0)
(0.0101125 -0.00289807 0)
(0.0101487 -0.00329079 0)
(0.0100822 -0.00334339 0)
(0.00983359 -0.00257268 0)
(0.00925934 -0.000237697 0)
(0.00817019 0.00458378 0)
(0.00644243 0.0125923 0)
(0.00410651 0.023242 0)
(0.00163618 0.0319628 0)
(6.46853e-05 0.0249464 0)
(0.000371392 -0.0141525 0)
(0.00203673 -0.0223888 0)
(0.00342408 -0.0205715 0)
(0.00435508 -0.015395 0)
(0.00485275 -0.0102476 0)
(0.00508337 -0.00639784 0)
(0.00519043 -0.00401885 0)
(0.00524785 -0.00283417 0)
(0.00527687 -0.00246306 0)
(0.00527583 -0.00256682 0)
(0.00523882 -0.00287113 0)
(0.00515783 -0.00310919 0)
(0.00501131 -0.00291817 0)
(0.00474686 -0.00172682 0)
(0.00426094 0.00128972 0)
(0.00347115 0.00701241 0)
(0.00234922 0.0159377 0)
(0.00104922 0.0269706 0)
(-1.87667e-05 0.0347719 0)
(-0.000174203 0.0254889 0)
(0.000281284 -0.0161432 0)
(0.00115171 -0.0246671 0)
(0.00144718 -0.0219377 0)
(0.0013142 -0.0158924 0)
(0.00097236 -0.0102586 0)
(0.000612187 -0.00623869 0)
(0.000318932 -0.00384458 0)
(9.66806e-05 -0.00267868 0)
(-8.10473e-05 -0.0023085 0)
(-0.000237948 -0.00239171 0)
(-0.000387222 -0.0026615 0)
(-0.000539087 -0.00284049 0)
(-0.000713465 -0.00252444 0)
(-0.000944021 -0.00108547 0)
(-0.00127226 0.0023186 0)
(-0.00166985 0.00846429 0)
(-0.00201917 0.017565 0)
(-0.00207374 0.0281041 0)
(-0.00157456 0.0346198 0)
(-0.000364808 0.0243449 0)
(0.000153294 -0.0170238 0)
(-0.000136558 -0.0246937 0)
(-0.00126313 -0.0208631 0)
(-0.00261936 -0.0143484 0)
(-0.00384886 -0.00879 0)
(-0.00481127 -0.00506762 0)
(-0.00551693 -0.0029682 0)
(-0.00603406 -0.00201256 0)
(-0.0064291 -0.00177311 0)
(-0.00674708 -0.00193716 0)
(-0.00701569 -0.002255 0)
(-0.00725521 -0.00244377 0)
(-0.00747999 -0.00209052 0)
(-0.00768027 -0.000597099 0)
(-0.00778273 0.00276494 0)
(-0.00761318 0.00859867 0)
(-0.00692046 0.0169119 0)
(-0.00545615 0.0261323 0)
(-0.003238 0.0313137 0)
(-0.000590732 0.0214773 0)
(-0.000180786 -0.0161114 0)
(-0.00222388 -0.0215302 0)
(-0.00503614 -0.0168059 0)
(-0.00768169 -0.010585 0)
(-0.00972628 -0.00581123 0)
(-0.0111613 -0.00288231 0)
(-0.0121363 -0.00139509 0)
(-0.0128103 -0.00085682 0)
(-0.0133049 -0.000885986 0)
(-0.0137033 -0.00121794 0)
(-0.0140567 -0.00163991 0)
(-0.0143854 -0.00190661 0)
(-0.0146674 -0.00167316 0)
(-0.014811 -0.000470935 0)
(-0.0146076 0.00224003 0)
(-0.0137598 0.00690452 0)
(-0.0119206 0.0134753 0)
(-0.00887957 0.0206636 0)
(-0.00492937 0.0245975 0)
(-0.000831998 0.0167966 0)
(-0.000816002 -0.012287 0)
(-0.00521045 -0.0143023 0)
(-0.00964674 -0.00961272 0)
(-0.0130554 -0.00489884 0)
(-0.0151949 -0.0018192 0)
(-0.0163902 -0.000247999 0)
(-0.0170336 0.00031735 0)
(-0.0174088 0.000306478 0)
(-0.0176866 -7.17304e-06 0)
(-0.0179709 -0.000459791 0)
(-0.0183154 -0.00092846 0)
(-0.0187196 -0.00127486 0)
(-0.0191152 -0.0013034 0)
(-0.0193416 -0.000743739 0)
(-0.0191072 0.000734708 0)
(-0.0179872 0.00345479 0)
(-0.01553 0.00745185 0)
(-0.0114898 0.0119967 0)
(-0.00629987 0.0147531 0)
(-0.00106527 0.0104052 0)
(-0.00196644 -0.00419926 0)
(-0.00699235 -0.00370767 0)
(-0.0106263 -0.00174786 0)
(-0.0125733 -0.000352059 0)
(-0.0132506 0.000315911 0)
(-0.0132733 0.000515823 0)
(-0.0130524 0.000479424 0)
(-0.0128134 0.000348089 0)
(-0.0126778 0.000184073 0)
(-0.0126994 8.78717e-06 0)
(-0.0128937 -0.000166453 0)
(-0.0132486 -0.000327946 0)
(-0.0137083 -0.000448624 0)
(-0.014147 -0.000477474 0)
(-0.0143384 -0.000327614 0)
(-0.0139441 0.000137342 0)
(-0.0125142 0.00103171 0)
(-0.00968418 0.00230326 0)
(-0.00566548 0.00342201 0)
(-0.00134685 0.00289264 0)
)
;

boundaryField
{
    leftWall
    {
        type            fixedValue;
        value           uniform (0 0 0);
    }
    rightWall
    {
        type            fixedValue;
        value           uniform (0 0 0);
    }
    topWall
    {
        type            fixedValue;
        value           uniform (0 0 0);
    }
    bottomWall
    {
        type            fixedValue;
        value           uniform (0 0 0);
    }
    frontAndBackPlanes
    {
        type            empty;
    }
}


// ************************************************************************* //
