/*--------------------------------*- C++ -*----------------------------------*\
| =========                 |                                                 |
| \\      /  F ield         | OpenFOAM: The Open Source CFD Toolbox           |
|  \\    /   O peration     | Version:  2506                                  |
|   \\  /    A nd           | Website:  www.openfoam.com                      |
|    \\/     M anipulation  |                                                 |
\*---------------------------------------------------------------------------*/
FoamFile
{
    version     2.0;
    format      ascii;
    arch        "LSB;label=32;scalar=64";
    class       volScalarField;
    location    "56.8";
    object      p_rgh;
}
// * * * * * * * * * * * * * * * * * * * * * * * * * * * * * * * * * * * * * //

dimensions      [1 -1 -2 0 0 0 0];

internalField   nonuniform List<scalar> 
200
(
100000
100000
100000
100000
100000
100000
100000
100000
100000
99999.9
99999.9
99999.9
99999.8
99999.8
99999.7
99999.6
99999.4
99999.2
99998.8
99998.2
100000
100000
100000
100000
100000
100000
100000
99999.9
99999.9
99999.9
99999.9
99999.8
99999.8
99999.8
99999.7
99999.7
99999.5
99999.2
99998.5
99997
100000
100000
99999.9
99999.9
99999.8
99999.8
99999.8
99999.8
99999.7
99999.7
99999.7
99999.7
99999.7
99999.7
99999.7
99999.7
99999.5
99999
99997.8
99995.3
100000
100000
99999.7
99999.6
99999.5
99999.4
99999.4
99999.4
99999.4
99999.4
99999.4
99999.4
99999.5
99999.5
99999.6
99999.6
99999.3
99998.6
99996.8
99993.4
100000
99999.9
99999.4
99999.1
99999
99998.9
99998.9
99998.9
99998.9
99998.9
99999
99999
99999.1
99999.2
99999.3
99999.3
99999
99998
99995.6
99991.4
100001
99999.7
99999
99998.5
99998.3
99998.2
99998.2
99998.2
99998.2
99998.2
99998.3
99998.3
99998.5
99998.7
99998.9
99998.8
99998.3
99997
99994.1
99989.4
100001
99999.5
99998.4
99997.7
99997.3
99997.2
99997.2
99997.1
99997.1
99997.1
99997.1
99997.2
99997.3
99997.5
99997.6
99997.5
99996.9
99995.4
99992.4
99987.5
100001
99999.1
99997.6
99996.7
99996.2
99996
99995.8
99995.6
99995.5
99995.4
99995.3
99995.3
99995.3
99995.3
99995.3
99995.2
99994.6
99993.1
99990.3
99985.8
100002
99998.7
99996.7
99995.6
99994.9
99994.4
99994
99993.7
99993.4
99993.1
99992.8
99992.6
99992.4
99992.2
99992.1
99991.9
99991.4
99990.2
99987.9
99984.1
100002
99998.4
99996.2
99994.8
99994
99993.3
99992.8
99992.3
99991.9
99991.4
99991
99990.5
99990.1
99989.6
99989.2
99988.8
99988.2
99987.2
99985.5
99982.8
)
;

boundaryField
{
    leftWall
    {
        type            fixedFluxPressure;
        gradient        nonuniform List<scalar> 10(0.078963 0.677144 2.5164 6.24615 12.2857 20.9367 32.6606 48.9698 70.0198 89.105);
        value           nonuniform List<scalar> 10(100000 100000 100000 100000 100001 100001 100002 100003 100003 100004);
    }
    rightWall
    {
        type            fixedFluxPressure;
        gradient        nonuniform List<scalar> 10(-17.2302 -47.8112 -71.6196 -89.724 -102.294 -111.08 -115.055 -110.986 -95.4015 -71.3915);
        value           nonuniform List<scalar> 10(99997.7 99995.8 99993.5 99991.1 99988.8 99986.6 99984.7 99983 99981.7 99981);
    }
    topWall
    {
        type            fixedFluxPressure;
        gradient        uniform 0;
        value           nonuniform List<scalar> 
20
(
100000
100000
100000
100000
100000
100000
100000
100000
100000
99999.9
99999.9
99999.9
99999.8
99999.8
99999.7
99999.6
99999.4
99999.2
99998.8
99998.2
)
;
    }
    bottomWall
    {
        type            fixedFluxPressure;
        gradient        uniform 0;
        value           nonuniform List<scalar> 
20
(
100002
99998.4
99996.2
99994.8
99994
99993.3
99992.8
99992.3
99991.9
99991.4
99991
99990.5
99990.1
99989.6
99989.2
99988.8
99988.2
99987.2
99985.5
99982.8
)
;
    }
    frontAndBackPlanes
    {
        type            empty;
    }
}


// ************************************************************************* //
