/*--------------------------------*- C++ -*----------------------------------*\
| =========                 |                                                 |
| \\      /  F ield         | OpenFOAM: The Open Source CFD Toolbox           |
|  \\    /   O peration     | Version:  2506                                  |
|   \\  /    A nd           | Website:  www.openfoam.com                      |
|    \\/     M anipulation  |                                                 |
\*---------------------------------------------------------------------------*/
FoamFile
{
    version     2.0;
    format      ascii;
    arch        "LSB;label=32;scalar=64";
    class       surfaceScalarField;
    location    "56.8";
    object      phi;
}
// * * * * * * * * * * * * * * * * * * * * * * * * * * * * * * * * * * * * * //

dimensions      [1 0 -1 0 0 0 0];

oriented        oriented;

internalField   nonuniform List<scalar> 
370
(
4.58598e-05
-0.000121569
0.000265946
-0.000220031
0.000505092
-0.000239063
0.00072444
-0.000219247
0.000910484
-0.000185932
0.00106709
-0.000156489
0.00120686
-0.000139644
0.00134529
-0.000138302
0.00149792
-0.000152497
0.00167921
-0.000181152
0.00190192
-0.000222567
0.00217571
-0.000273641
0.0025031
-0.00032723
0.00287138
-0.000368121
0.00323812
-0.000366575
0.00350644
-0.000268153
0.00347663
2.99754e-05
0.00292691
0.000549889
0.0016158
0.00131126
0.00161589
0.000198602
-0.000320133
0.000594527
-0.00061585
0.00103856
-0.000682938
0.0014519
-0.000632402
0.00180806
-0.000541895
0.00210904
-0.000457261
0.00237003
-0.000400422
0.00261019
-0.000378261
0.00284755
-0.000389638
0.00309614
-0.000429525
0.00336394
-0.000490139
0.00364958
-0.000559051
0.00393668
-0.000614089
0.00418402
-0.00061521
0.00431221
-0.000494515
0.00419394
-0.000149633
0.00367898
0.000545172
0.0025905
0.00163861
0.00106689
0.00283507
0.00268289
0.000264273
-0.000584341
0.000744008
-0.0010954
0.00125737
-0.00119604
0.0017179
-0.00109263
0.00210031
-0.000923981
0.00241027
-0.000766884
0.00266514
-0.000654969
0.00288366
-0.000596448
0.00308103
-0.000586677
0.00326696
-0.000615127
0.00344436
-0.000667206
0.00360689
-0.000721239
0.00373408
-0.000740918
0.00378375
-0.000664522
0.00368508
-0.000395489
0.00334177
0.000194021
0.00267288
0.0012144
0.00168017
0.00263164
0.000594512
0.00392099
0.00327754
0.000287121
-0.000871368
0.000777972
-0.001586
0.00126915
-0.00168685
0.00167876
-0.00150183
0.00199273
-0.00123751
0.00222601
-0.00099972
0.00240054
-0.00082906
0.00253533
-0.000730808
0.00264352
-0.000694433
0.00273247
-0.00070365
0.00280426
-0.000738552
0.00285447
-0.000771002
0.0028684
-0.000754394
0.002815
-0.000610668
0.00264287
-0.000222898
0.00228881
0.00054852
0.00171905
0.00178458
0.000983825
0.00336724
0.000291583
0.00461355
0.00356927
0.000278648
-0.0011499
0.000711217
-0.00201825
0.00109937
-0.00207455
0.00138212
-0.00178407
0.00156537
-0.00142025
0.00167598
-0.0011098
0.00173957
-0.000892139
0.00177385
-0.000764583
0.00178912
-0.000709203
0.00179087
-0.000704896
0.0017814
-0.000728565
0.00175903
-0.000748108
0.00171489
-0.000709708
0.00162864
-0.000523873
0.00146654
-6.02624e-05
0.00119045
0.000825134
0.000798761
0.00217676
0.000364995
0.00380145
5.14736e-05
0.00492742
0.00362089
0.000227094
-0.00137686
0.000514507
-0.00230529
0.000708196
-0.00226773
0.000789081
-0.00186439
0.000791181
-0.00142177
0.000750184
-0.00106824
0.000689605
-0.000831004
0.000621419
-0.000695848
0.000550976
-0.000638211
0.000480872
-0.000634237
0.000411882
-0.000659009
0.000341363
-0.000677009
0.000261076
-0.000628826
0.000157537
-0.000419728
1.87303e-05
7.91613e-05
-0.000142599
0.000987059
-0.000286635
0.00232135
-0.00033397
0.00384927
-0.000211032
0.00480485
0.00341001
0.000104153
-0.00148086
0.000119044
-0.00231977
2.16706e-06
-0.0021503
-0.000192666
-0.00166896
-0.000411896
-0.00120195
-0.000623275
-0.000856282
-0.000815007
-0.000638703
-0.000986181
-0.000524106
-0.00113938
-0.000484442
-0.00127771
-0.000495333
-0.00140488
-0.000531263
-0.00152568
-0.000555609
-0.00164385
-0.000510053
-0.00175423
-0.000308724
-0.00182727
0.000152821
-0.00179827
0.00095866
-0.00158854
0.00211218
-0.00113934
0.00340056
-0.000498054
0.00416392
0.0029121
-0.00013903
-0.00134165
-0.000548543
-0.0019098
-0.00107497
-0.0016233
-0.00158789
-0.00115544
-0.00202961
-0.000759642
-0.00239186
-0.000493461
-0.00268756
-0.000342444
-0.0029347
-0.000276415
-0.00314959
-0.000268996
-0.003345
-0.000299375
-0.0035292
-0.000346514
-0.00370282
-0.000381444
-0.00385167
-0.000360647
-0.00393609
-0.000223744
-0.00388231
9.96043e-05
-0.00358986
0.000666753
-0.00296535
0.00148818
-0.00198125
0.0024169
-0.000800894
0.00298389
0.00211134
-0.000514986
-0.000826454
-0.00144108
-0.000983222
-0.00234368
-0.000720117
-0.00305914
-0.000439399
-0.00357879
-0.000239441
-0.00394787
-0.000123846
-0.00421919
-7.06078e-05
-0.00443702
-5.80899e-05
-0.00463384
-7.16922e-05
-0.00483099
-0.000101748
-0.00503796
-0.000139086
-0.00524752
-0.000171424
-0.00542719
-0.000180518
-0.00550998
-0.000140512
-0.00539528
-1.46559e-05
-0.00494765
0.000219562
-0.00404975
0.000590693
-0.00267631
0.00104382
-0.00106042
0.00136828
0.00105103
-0.000826229
-0.00180896
-0.0025285
-0.00296733
-0.00320625
-0.00332961
-0.00339976
-0.00345742
-0.0035287
-0.00363006
-0.00376877
-0.00393983
-0.00412
-0.00426018
-0.00427451
-0.00405464
-0.00346366
-0.00241959
-0.00105112
)
;

boundaryField
{
    leftWall
    {
        type            calculated;
        value           nonuniform List<scalar> 10(4.23516e-22 0 1.35525e-20 0 0 -1.0842e-19 2.1684e-19 0 0 0);
    }
    rightWall
    {
        type            calculated;
        value           nonuniform List<scalar> 10(0 2.1684e-19 0 0 0 0 0 0 4.33681e-19 -4.33681e-19);
    }
    topWall
    {
        type            calculated;
        value           uniform 0;
    }
    bottomWall
    {
        type            calculated;
        value           uniform 0;
    }
    frontAndBackPlanes
    {
        type            empty;
    }
}


// ************************************************************************* //
