/*--------------------------------*- C++ -*----------------------------------*\
| =========                 |                                                 |
| \\      /  F ield         | OpenFOAM: The Open Source CFD Toolbox           |
|  \\    /   O peration     | Version:  2506                                  |
|   \\  /    A nd           | Website:  www.openfoam.com                      |
|    \\/     M anipulation  |                                                 |
\*---------------------------------------------------------------------------*/
FoamFile
{
    version     2.0;
    format      ascii;
    arch        "LSB;label=32;scalar=64";
    class       volScalarField;
    location    "16";
    object      p_rgh;
}
// * * * * * * * * * * * * * * * * * * * * * * * * * * * * * * * * * * * * * //

dimensions      [1 -1 -2 0 0 0 0];

internalField   nonuniform List<scalar> 
200
(
100000
100000
100000
100000
100000
100000
100000
100000
100000
100000
100000
100000
99999.9
99999.8
99999.7
99999.6
99999.4
99999.2
99998.8
99998.1
100000
100000
100000
100000
100000
100000
100000
100000
100000
100000
100000
100000
99999.9
99999.8
99999.8
99999.7
99999.6
99999.3
99998.6
99997
100000
100000
100000
100000
100000
100000
100000
100000
100000
100000
100000
100000
99999.9
99999.9
99999.8
99999.7
99999.6
99999.1
99997.9
99995.2
100000
100000
100000
100000
100000
100000
100000
100000
100000
100000
100000
100000
100000
99999.9
99999.9
99999.8
99999.5
99998.7
99996.9
99993.2
100000
100000
100000
100000
100000
100000
100000
100000
100000
100000
100000
100000
100000
100000
99999.9
99999.7
99999.3
99998.2
99995.7
99991
100000
100000
100000
100000
100000
100000
100000
100000
100000
100000
100000
100000
100000
99999.9
99999.8
99999.5
99998.9
99997.3
99994.1
99988.6
100000
100000
100000
100001
100001
100001
100001
100001
100000
100000
100000
99999.9
99999.7
99999.6
99999.4
99998.9
99997.9
99996
99992.3
99986.4
100000
100000
100001
100001
100001
100001
100001
100001
100001
100000
99999.8
99999.3
99998.8
99998.3
99997.9
99997.2
99996
99993.9
99990.2
99984.3
100000
100000
100001
100001
100001
100001
100001
100001
100000
99999.9
99999
99998
99996.9
99995.9
99995.1
99994.2
99993
99991.1
99987.8
99982.4
100000
100000
100001
100001
100001
100001
100001
100001
100001
99999.9
99998.8
99997.3
99995.7
99994.1
99992.6
99991.3
99989.9
99988.1
99985.3
99980.9
)
;

boundaryField
{
    leftWall
    {
        type            fixedFluxPressure;
        gradient        nonuniform List<scalar> 10(-0.0216756 -0.150619 -0.478899 -1.02308 -1.80107 -2.84707 -4.20981 -5.82923 -7.45686 -8.70622);
        value           nonuniform List<scalar> 10(100000 100000 100000 100000 100000 100000 100000 100000 100000 99999.9);
    }
    rightWall
    {
        type            fixedFluxPressure;
        gradient        nonuniform List<scalar> 10(-18.0082 -51.0432 -78.4536 -101.103 -119.005 -130.647 -140.428 -144.997 -139.977 -124.729);
        value           nonuniform List<scalar> 10(99997.7 99995.7 99993.3 99990.7 99988 99985.4 99982.9 99980.6 99978.9 99977.8);
    }
    topWall
    {
        type            fixedFluxPressure;
        gradient        uniform 0;
        value           nonuniform List<scalar> 
20
(
100000
100000
100000
100000
100000
100000
100000
100000
100000
100000
100000
100000
99999.9
99999.8
99999.7
99999.6
99999.4
99999.2
99998.8
99998.1
)
;
    }
    bottomWall
    {
        type            fixedFluxPressure;
        gradient        uniform 0;
        value           nonuniform List<scalar> 
20
(
100000
100000
100001
100001
100001
100001
100001
100001
100001
99999.9
99998.8
99997.3
99995.7
99994.1
99992.6
99991.3
99989.9
99988.1
99985.3
99980.9
)
;
    }
    frontAndBackPlanes
    {
        type            empty;
    }
}


// ************************************************************************* //
