/*--------------------------------*- C++ -*----------------------------------*\
| =========                 |                                                 |
| \\      /  F ield         | OpenFOAM: The Open Source CFD Toolbox           |
|  \\    /   O peration     | Version:  2506                                  |
|   \\  /    A nd           | Website:  www.openfoam.com                      |
|    \\/     M anipulation  |                                                 |
\*---------------------------------------------------------------------------*/
FoamFile
{
    version     2.0;
    format      ascii;
    arch        "LSB;label=32;scalar=64";
    class       volScalarField;
    location    "16";
    object      T;
}
// * * * * * * * * * * * * * * * * * * * * * * * * * * * * * * * * * * * * * //

dimensions      [0 0 0 1 0 0 0];

internalField   nonuniform List<scalar> 
200
(
273.15
273.149
273.148
273.148
273.147
273.147
273.147
273.147
273.147
273.147
273.147
273.147
273.147
273.148
273.15
273.157
273.178
273.237
273.399
273.787
273.149
273.147
273.146
273.145
273.144
273.144
273.143
273.143
273.143
273.143
273.143
273.143
273.144
273.144
273.146
273.152
273.171
273.231
273.403
273.807
273.148
273.145
273.142
273.14
273.139
273.139
273.138
273.138
273.138
273.138
273.138
273.138
273.138
273.139
273.142
273.149
273.171
273.24
273.427
273.833
273.147
273.142
273.138
273.135
273.134
273.133
273.132
273.132
273.132
273.132
273.132
273.133
273.133
273.134
273.138
273.147
273.176
273.255
273.455
273.858
273.146
273.139
273.134
273.13
273.128
273.127
273.127
273.126
273.127
273.127
273.128
273.129
273.13
273.131
273.136
273.149
273.185
273.276
273.488
273.883
273.145
273.136
273.129
273.125
273.122
273.121
273.121
273.121
273.122
273.124
273.126
273.13
273.133
273.135
273.141
273.16
273.205
273.31
273.532
273.909
273.144
273.133
273.125
273.119
273.116
273.115
273.115
273.117
273.12
273.125
273.134
273.144
273.153
273.16
273.172
273.201
273.259
273.373
273.588
273.931
273.143
273.13
273.12
273.114
273.111
273.11
273.111
273.115
273.123
273.138
273.159
273.184
273.209
273.232
273.258
273.295
273.358
273.468
273.657
273.954
273.142
273.127
273.116
273.109
273.106
273.105
273.108
273.115
273.131
273.16
273.202
273.252
273.303
273.351
273.394
273.44
273.5
273.594
273.744
273.983
273.141
273.126
273.114
273.106
273.102
273.1
273.102
273.11
273.128
273.163
273.216
273.284
273.358
273.432
273.501
273.566
273.635
273.72
273.837
274.015
)
;

boundaryField
{
    leftWall
    {
        type            fixedValue;
        value           uniform 273.15;
    }
    rightWall
    {
        type            customNeumannDirichletCoupledBoundary;
        refValue        nonuniform List<scalar> 10(274.124 274.126 274.127 274.129 274.13 274.132 274.134 274.135 274.137 274.138);
        refGradient     uniform 0;
        valueFraction   uniform 1;
        source          uniform 0;
        value           nonuniform List<scalar> 10(274.124 274.126 274.127 274.129 274.13 274.132 274.134 274.135 274.137 274.138);
        kappaMethod     fluidThermo;
    }
    topWall
    {
        type            zeroGradient;
    }
    bottomWall
    {
        type            zeroGradient;
    }
    frontAndBackPlanes
    {
        type            empty;
    }
}


// ************************************************************************* //
