/*--------------------------------*- C++ -*----------------------------------*\
| =========                 |                                                 |
| \\      /  F ield         | OpenFOAM: The Open Source CFD Toolbox           |
|  \\    /   O peration     | Version:  2506                                  |
|   \\  /    A nd           | Website:  www.openfoam.com                      |
|    \\/     M anipulation  |                                                 |
\*---------------------------------------------------------------------------*/
FoamFile
{
    version     2.0;
    format      ascii;
    arch        "LSB;label=32;scalar=64";
    class       volScalarField;
    location    "89.4";
    object      p_rgh;
}
// * * * * * * * * * * * * * * * * * * * * * * * * * * * * * * * * * * * * * //

dimensions      [1 -1 -2 0 0 0 0];

internalField   nonuniform List<scalar> 
200
(
100000
100000
100000
100000
99999.9
99999.9
99999.8
99999.8
99999.8
99999.7
99999.7
99999.7
99999.6
99999.5
99999.5
99999.4
99999.2
99998.9
99998.6
99998
100000
100000
99999.9
99999.8
99999.8
99999.8
99999.7
99999.7
99999.7
99999.6
99999.6
99999.6
99999.5
99999.5
99999.5
99999.4
99999.3
99999
99998.3
99996.9
100000
100000
99999.7
99999.6
99999.5
99999.4
99999.4
99999.4
99999.4
99999.4
99999.3
99999.3
99999.3
99999.3
99999.3
99999.3
99999.1
99998.7
99997.6
99995.3
100001
99999.9
99999.4
99999.1
99999
99998.9
99998.9
99998.9
99998.9
99998.9
99998.9
99998.9
99999
99999
99999.1
99999.1
99998.9
99998.2
99996.6
99993.5
100001
99999.7
99998.9
99998.5
99998.3
99998.2
99998.2
99998.3
99998.3
99998.3
99998.4
99998.4
99998.5
99998.6
99998.7
99998.7
99998.5
99997.6
99995.4
99991.8
100001
99999.6
99998.4
99997.7
99997.4
99997.4
99997.4
99997.5
99997.5
99997.6
99997.6
99997.7
99997.8
99997.9
99998.1
99998.1
99997.7
99996.5
99994
99990
100002
99999.3
99997.7
99996.8
99996.5
99996.4
99996.5
99996.5
99996.5
99996.5
99996.5
99996.5
99996.6
99996.8
99996.9
99996.8
99996.3
99995
99992.4
99988.4
100002
99998.9
99996.8
99995.9
99995.4
99995.3
99995.1
99995
99994.9
99994.8
99994.8
99994.7
99994.8
99994.8
99994.8
99994.7
99994.2
99993
99990.6
99986.8
100003
99998.4
99996
99994.8
99994.2
99993.8
99993.5
99993.3
99993
99992.8
99992.6
99992.4
99992.3
99992.1
99992
99991.8
99991.4
99990.4
99988.5
99985.4
100003
99998.1
99995.4
99994.1
99993.4
99992.9
99992.5
99992.1
99991.8
99991.4
99991.1
99990.7
99990.4
99990
99989.7
99989.3
99988.8
99987.9
99986.5
99984.3
)
;

boundaryField
{
    leftWall
    {
        type            fixedFluxPressure;
        gradient        nonuniform List<scalar> 10(0.467762 2.55959 7.1405 14.5094 24.7109 37.972 55.0722 78.7056 107.819 134.838);
        value           nonuniform List<scalar> 10(100000 100000 100000 100001 100001 100002 100003 100004 100005 100006);
    }
    rightWall
    {
        type            fixedFluxPressure;
        gradient        nonuniform List<scalar> 10(-15.7655 -43.1044 -63.352 -77.7846 -87.1757 -93.7594 -95.6401 -90.4516 -75.955 -56.0547);
        value           nonuniform List<scalar> 10(99997.6 99995.8 99993.7 99991.6 99989.6 99987.7 99986 99984.6 99983.5 99982.9);
    }
    topWall
    {
        type            fixedFluxPressure;
        gradient        uniform 0;
        value           nonuniform List<scalar> 
20
(
100000
100000
100000
100000
99999.9
99999.9
99999.8
99999.8
99999.8
99999.7
99999.7
99999.7
99999.6
99999.5
99999.5
99999.4
99999.2
99998.9
99998.6
99998
)
;
    }
    bottomWall
    {
        type            fixedFluxPressure;
        gradient        uniform 0;
        value           nonuniform List<scalar> 
20
(
100003
99998.1
99995.4
99994.1
99993.4
99992.9
99992.5
99992.1
99991.8
99991.4
99991.1
99990.7
99990.4
99990
99989.7
99989.3
99988.8
99987.9
99986.5
99984.3
)
;
    }
    frontAndBackPlanes
    {
        type            empty;
    }
}


// ************************************************************************* //
