/*--------------------------------*- C++ -*----------------------------------*\
| =========                 |                                                 |
| \\      /  F ield         | OpenFOAM: The Open Source CFD Toolbox           |
|  \\    /   O peration     | Version:  2506                                  |
|   \\  /    A nd           | Website:  www.openfoam.com                      |
|    \\/     M anipulation  |                                                 |
\*---------------------------------------------------------------------------*/
FoamFile
{
    version     2.0;
    format      ascii;
    arch        "LSB;label=32;scalar=64";
    class       volVectorField;
    location    "32.4";
    object      U;
}
// * * * * * * * * * * * * * * * * * * * * * * * * * * * * * * * * * * * * * //

dimensions      [0 1 -1 0 0 0 0];

internalField   nonuniform List<vector> 
200
(
(-0.000237253 -0.000101404 0)
(-6.31763e-05 -0.000251385 0)
(0.00069801 -0.000373114 0)
(0.00178831 -0.000497621 0)
(0.00302271 -0.000570894 0)
(0.00432768 -0.000588662 0)
(0.00561884 -0.000572977 0)
(0.00684484 -0.000549615 0)
(0.00799296 -0.000541851 0)
(0.00908121 -0.000568156 0)
(0.0101473 -0.000641155 0)
(0.0112362 -0.000766516 0)
(0.0123844 -0.000939374 0)
(0.0135964 -0.00113387 0)
(0.0148016 -0.00127936 0)
(0.0157613 -0.00120611 0)
(0.0159463 -0.000546806 0)
(0.0144598 0.00129993 0)
(0.0103166 0.00455057 0)
(0.00309639 0.0065165 0)
(5.71175e-05 -0.000732374 0)
(0.000938222 -0.00216196 0)
(0.00260778 -0.00337889 0)
(0.00479407 -0.00424212 0)
(0.00722324 -0.00467916 0)
(0.00968449 -0.00475104 0)
(0.012032 -0.00457771 0)
(0.0141831 -0.00428926 0)
(0.0161073 -0.00399704 0)
(0.0178083 -0.00377847 0)
(0.0193022 -0.0036685 0)
(0.0205937 -0.00365085 0)
(0.0216504 -0.00364099 0)
(0.0223718 -0.00345039 0)
(0.0225507 -0.0027189 0)
(0.0218239 -0.000808002 0)
(0.0196168 0.00325128 0)
(0.015287 0.010284 0)
(0.00885062 0.0189526 0)
(0.0015284 0.0193335 0)
(0.000158045 -0.00199724 0)
(0.00158498 -0.00545591 0)
(0.00389332 -0.00806468 0)
(0.00669628 -0.00964098 0)
(0.00960176 -0.0102404 0)
(0.0123539 -0.0100816 0)
(0.0148137 -0.00944263 0)
(0.0169274 -0.00858162 0)
(0.0186948 -0.00769268 0)
(0.02014 -0.00688674 0)
(0.0212838 -0.00618253 0)
(0.022118 -0.00549566 0)
(0.022581 -0.0046169 0)
(0.0225348 -0.00317321 0)
(0.0217365 -0.000568655 0)
(0.0198453 0.00403062 0)
(0.0165513 0.0114801 0)
(0.0117277 0.0219383 0)
(0.00596545 0.032034 0)
(0.000782621 0.0274643 0)
(0.000218157 -0.00386775 0)
(0.00199063 -0.00979689 0)
(0.00461664 -0.0137197 0)
(0.00756614 -0.0156695 0)
(0.0103713 -0.0159803 0)
(0.0127822 -0.015154 0)
(0.0147158 -0.0136989 0)
(0.0161917 -0.0120242 0)
(0.0172798 -0.0103973 0)
(0.0180594 -0.00893605 0)
(0.0185883 -0.00761145 0)
(0.0188782 -0.00624182 0)
(0.0188765 -0.00447623 0)
(0.0184521 -0.00177198 0)
(0.0173556 0.00261149 0)
(0.0153729 0.00947892 0)
(0.0123075 0.0194668 0)
(0.00821283 0.0319687 0)
(0.0037669 0.0419072 0)
(0.000382974 0.0325082 0)
(0.000270935 -0.00608066 0)
(0.00215167 -0.0145333 0)
(0.00466199 -0.0194137 0)
(0.00720219 -0.0211955 0)
(0.0093128 -0.0206748 0)
(0.0108185 -0.0187639 0)
(0.0117432 -0.0162563 0)
(0.0122132 -0.0137127 0)
(0.0123849 -0.0114435 0)
(0.0123974 -0.00953317 0)
(0.012343 -0.00786546 0)
(0.0122496 -0.00613027 0)
(0.012071 -0.00381723 0)
(0.0116782 -0.000222355 0)
(0.0108453 0.00547158 0)
(0.00940759 0.0140184 0)
(0.0072422 0.0257566 0)
(0.00447269 0.0393563 0)
(0.00170056 0.0484643 0)
(5.86992e-05 0.0352038 0)
(0.000287247 -0.00832628 0)
(0.00187088 -0.0188403 0)
(0.00363827 -0.0240023 0)
(0.00507118 -0.0249757 0)
(0.00584643 -0.0231603 0)
(0.00594365 -0.0199604 0)
(0.00553493 -0.0164478 0)
(0.00485145 -0.0132863 0)
(0.00410839 -0.010764 0)
(0.00346071 -0.00886877 0)
(0.00298714 -0.00734782 0)
(0.00269123 -0.00573298 0)
(0.0025104 -0.00334967 0)
(0.00231731 0.000647117 0)
(0.00196786 0.00712529 0)
(0.00137406 0.0167202 0)
(0.00054775 0.0294274 0)
(-0.000296898 0.0432949 0)
(-0.000753327 0.0511396 0)
(-0.000290741 0.0354857 0)
(0.000214247 -0.00998743 0)
(0.000846042 -0.0213754 0)
(0.00103425 -0.025898 0)
(0.000573594 -0.0255342 0)
(-0.00057093 -0.022295 0)
(-0.00218523 -0.0180244 0)
(-0.00395839 -0.0139854 0)
(-0.00565665 -0.010809 0)
(-0.00711373 -0.00863361 0)
(-0.0082497 -0.00726725 0)
(-0.00905632 -0.00629442 0)
(-0.00956871 -0.00512166 0)
(-0.00983535 -0.00299697 0)
(-0.00988389 0.000936246 0)
(-0.0096885 0.00747056 0)
(-0.00914758 0.0170353 0)
(-0.00808352 0.0293114 0)
(-0.00628161 0.0420706 0)
(-0.0037531 0.0485095 0)
(-0.00072155 0.0328023 0)
(-3.77828e-05 -0.0100476 0)
(-0.00120031 -0.0203029 0)
(-0.00344701 -0.0232336 0)
(-0.00640839 -0.0214719 0)
(-0.00962372 -0.0174491 0)
(-0.0127251 -0.0130433 0)
(-0.0154795 -0.00938193 0)
(-0.0177895 -0.00688604 0)
(-0.0196547 -0.00550015 0)
(-0.0211269 -0.00490026 0)
(-0.0222648 -0.00461456 0)
(-0.0230936 -0.00406891 0)
(-0.023573 -0.00260126 0)
(-0.0235545 0.000503321 0)
(-0.0227577 0.00589214 0)
(-0.020883 0.0138837 0)
(-0.0176189 0.0240988 0)
(-0.0128422 0.0345511 0)
(-0.00704432 0.0396427 0)
(-0.0012072 0.0266485 0)
(-0.000485682 -0.0074643 0)
(-0.00390505 -0.014218 0)
(-0.00874132 -0.015283 0)
(-0.0138695 -0.0130611 0)
(-0.0184364 -0.00959273 0)
(-0.0221048 -0.00629372 0)
(-0.0248827 -0.00387738 0)
(-0.0269548 -0.00250723 0)
(-0.0285571 -0.0020254 0)
(-0.0298934 -0.00212726 0)
(-0.0310817 -0.00245134 0)
(-0.0321241 -0.00260571 0)
(-0.0328834 -0.00216512 0)
(-0.0330651 -0.000668697 0)
(-0.0321859 0.0023587 0)
(-0.0297192 0.00724583 0)
(-0.0251341 0.0138086 0)
(-0.0182622 0.0207838 0)
(-0.00989573 0.0246019 0)
(-0.00168054 0.0170338 0)
(-0.000922091 -0.00214771 0)
(-0.00461669 -0.00359633 0)
(-0.00937255 -0.00345701 0)
(-0.0138032 -0.00255641 0)
(-0.017134 -0.00149868 0)
(-0.0192832 -0.000632851 0)
(-0.020513 -9.098e-05 0)
(-0.0211839 0.000132634 0)
(-0.0216243 0.000105135 0)
(-0.0220748 -9.03322e-05 0)
(-0.0226717 -0.00037227 0)
(-0.0234408 -0.000661019 0)
(-0.0242863 -0.000868723 0)
(-0.0249696 -0.000883662 0)
(-0.0250915 -0.000544052 0)
(-0.0240901 0.000383382 0)
(-0.0212884 0.00201969 0)
(-0.0162324 0.00418526 0)
(-0.00939547 0.00594787 0)
(-0.00224073 0.00487623 0)
)
;

boundaryField
{
    leftWall
    {
        type            fixedValue;
        value           uniform (0 0 0);
    }
    rightWall
    {
        type            fixedValue;
        value           uniform (0 0 0);
    }
    topWall
    {
        type            fixedValue;
        value           uniform (0 0 0);
    }
    bottomWall
    {
        type            fixedValue;
        value           uniform (0 0 0);
    }
    frontAndBackPlanes
    {
        type            empty;
    }
}


// ************************************************************************* //
