/*--------------------------------*- C++ -*----------------------------------*\
| =========                 |                                                 |
| \\      /  F ield         | OpenFOAM: The Open Source CFD Toolbox           |
|  \\    /   O peration     | Version:  2506                                  |
|   \\  /    A nd           | Website:  www.openfoam.com                      |
|    \\/     M anipulation  |                                                 |
\*---------------------------------------------------------------------------*/
FoamFile
{
    version     2.0;
    format      ascii;
    arch        "LSB;label=32;scalar=64";
    class       volScalarField;
    location    "55.4";
    object      T;
}
// * * * * * * * * * * * * * * * * * * * * * * * * * * * * * * * * * * * * * //

dimensions      [0 0 0 1 0 0 0];

internalField   nonuniform List<scalar> 
200
(
273.151
273.154
273.156
273.157
273.158
273.158
273.159
273.159
273.159
273.159
273.159
273.16
273.161
273.162
273.165
273.173
273.195
273.258
273.422
273.802
273.154
273.161
273.167
273.171
273.174
273.175
273.176
273.176
273.176
273.176
273.176
273.177
273.177
273.176
273.177
273.181
273.201
273.263
273.437
273.827
273.159
273.175
273.189
273.198
273.203
273.205
273.206
273.206
273.206
273.205
273.205
273.204
273.202
273.199
273.197
273.199
273.218
273.287
273.472
273.859
273.166
273.195
273.219
273.234
273.243
273.246
273.247
273.246
273.244
273.243
273.241
273.238
273.233
273.226
273.22
273.22
273.242
273.319
273.514
273.889
273.174
273.22
273.255
273.278
273.289
273.294
273.294
273.292
273.29
273.287
273.283
273.278
273.27
273.259
273.247
273.247
273.273
273.359
273.561
273.918
273.184
273.248
273.296
273.326
273.341
273.346
273.346
273.344
273.342
273.34
273.336
273.329
273.319
273.304
273.29
273.292
273.326
273.422
273.62
273.944
273.195
273.279
273.342
273.38
273.398
273.404
273.406
273.407
273.408
273.408
273.406
273.402
273.393
273.382
273.375
273.382
273.419
273.51
273.687
273.969
273.209
273.316
273.39
273.434
273.457
273.47
273.479
273.487
273.494
273.501
273.505
273.507
273.507
273.504
273.505
273.515
273.548
273.623
273.767
273.998
273.225
273.35
273.436
273.488
273.521
273.544
273.562
273.579
273.595
273.609
273.623
273.635
273.645
273.655
273.664
273.677
273.704
273.76
273.864
274.034
273.235
273.37
273.46
273.517
273.557
273.587
273.612
273.635
273.657
273.679
273.701
273.723
273.745
273.767
273.789
273.812
273.843
273.888
273.959
274.071
)
;

boundaryField
{
    leftWall
    {
        type            fixedValue;
        value           uniform 273.15;
    }
    rightWall
    {
        type            customNeumannDirichletCoupledBoundary;
        refValue        nonuniform List<scalar> 10(274.126 274.127 274.129 274.131 274.133 274.135 274.137 274.139 274.141 274.142);
        refGradient     uniform 0;
        valueFraction   uniform 1;
        source          uniform 0;
        value           nonuniform List<scalar> 10(274.126 274.127 274.129 274.131 274.133 274.135 274.137 274.139 274.141 274.142);
        kappaMethod     fluidThermo;
    }
    topWall
    {
        type            zeroGradient;
    }
    bottomWall
    {
        type            zeroGradient;
    }
    frontAndBackPlanes
    {
        type            empty;
    }
}


// ************************************************************************* //
