/*--------------------------------*- C++ -*----------------------------------*\
| =========                 |                                                 |
| \\      /  F ield         | OpenFOAM: The Open Source CFD Toolbox           |
|  \\    /   O peration     | Version:  2506                                  |
|   \\  /    A nd           | Website:  www.openfoam.com                      |
|    \\/     M anipulation  |                                                 |
\*---------------------------------------------------------------------------*/
FoamFile
{
    version     2.0;
    format      ascii;
    arch        "LSB;label=32;scalar=64";
    class       volScalarField;
    location    "47";
    object      p_rgh;
}
// * * * * * * * * * * * * * * * * * * * * * * * * * * * * * * * * * * * * * //

dimensions      [1 -1 -2 0 0 0 0];

internalField   nonuniform List<scalar> 
200
(
100000
100000
100000
100000
100000
100000
100000
100000
100000
100000
100000
99999.9
99999.9
99999.8
99999.8
99999.7
99999.5
99999.2
99998.8
99998.2
100000
100000
100000
100000
100000
100000
100000
100000
100000
100000
99999.9
99999.9
99999.9
99999.9
99999.8
99999.8
99999.6
99999.3
99998.6
99997
100000
100000
100000
100000
99999.9
99999.9
99999.9
99999.9
99999.9
99999.9
99999.8
99999.8
99999.8
99999.8
99999.8
99999.8
99999.6
99999.1
99997.9
99995.3
100000
100000
99999.9
99999.8
99999.7
99999.6
99999.6
99999.6
99999.6
99999.6
99999.6
99999.7
99999.7
99999.7
99999.8
99999.7
99999.5
99998.8
99996.9
99993.4
100000
100000
99999.7
99999.4
99999.3
99999.2
99999.2
99999.2
99999.2
99999.2
99999.3
99999.3
99999.4
99999.5
99999.6
99999.6
99999.3
99998.2
99995.7
99991.3
100001
99999.9
99999.3
99998.9
99998.6
99998.5
99998.5
99998.5
99998.5
99998.6
99998.6
99998.7
99998.9
99999.1
99999.3
99999.2
99998.7
99997.2
99994.2
99989.2
100001
99999.7
99998.8
99998.1
99997.8
99997.6
99997.5
99997.5
99997.5
99997.5
99997.6
99997.7
99997.8
99998
99998.1
99997.9
99997.3
99995.6
99992.4
99987.3
100001
99999.4
99998
99997.2
99996.6
99996.4
99996.2
99996
99995.9
99995.8
99995.7
99995.7
99995.7
99995.8
99995.8
99995.6
99994.9
99993.3
99990.3
99985.4
100001
99999
99997.2
99996
99995.2
99994.7
99994.3
99993.9
99993.6
99993.3
99993
99992.8
99992.6
99992.4
99992.3
99992.1
99991.5
99990.2
99987.8
99983.6
100002
99998.8
99996.8
99995.3
99994.3
99993.6
99992.9
99992.4
99991.9
99991.4
99990.9
99990.4
99990
99989.5
99989.1
99988.6
99988
99987
99985.2
99982.2
)
;

boundaryField
{
    leftWall
    {
        type            fixedFluxPressure;
        gradient        nonuniform List<scalar> 10(0.0120107 0.2461 1.15484 3.31455 7.27954 13.5023 22.4359 35.1473 51.8146 66.1677);
        value           nonuniform List<scalar> 10(100000 100000 100000 100000 100001 100001 100001 100002 100003 100003);
    }
    rightWall
    {
        type            fixedFluxPressure;
        gradient        nonuniform List<scalar> 10(-17.5294 -49.0894 -74.334 -94.1381 -108.338 -118.014 -123.038 -119.76 -104.076 -78.4054);
        value           nonuniform List<scalar> 10(99997.8 99995.8 99993.5 99991 99988.6 99986.3 99984.2 99982.4 99981 99980.2);
    }
    topWall
    {
        type            fixedFluxPressure;
        gradient        uniform 0;
        value           nonuniform List<scalar> 
20
(
100000
100000
100000
100000
100000
100000
100000
100000
100000
100000
100000
99999.9
99999.9
99999.8
99999.8
99999.7
99999.5
99999.2
99998.8
99998.2
)
;
    }
    bottomWall
    {
        type            fixedFluxPressure;
        gradient        uniform 0;
        value           nonuniform List<scalar> 
20
(
100002
99998.8
99996.8
99995.3
99994.3
99993.6
99992.9
99992.4
99991.9
99991.4
99990.9
99990.4
99990
99989.5
99989.1
99988.6
99988
99987
99985.2
99982.2
)
;
    }
    frontAndBackPlanes
    {
        type            empty;
    }
}


// ************************************************************************* //
