/*--------------------------------*- C++ -*----------------------------------*\
| =========                 |                                                 |
| \\      /  F ield         | OpenFOAM: The Open Source CFD Toolbox           |
|  \\    /   O peration     | Version:  2506                                  |
|   \\  /    A nd           | Website:  www.openfoam.com                      |
|    \\/     M anipulation  |                                                 |
\*---------------------------------------------------------------------------*/
FoamFile
{
    version     2.0;
    format      ascii;
    arch        "LSB;label=32;scalar=64";
    class       surfaceScalarField;
    location    "47";
    object      phi;
}
// * * * * * * * * * * * * * * * * * * * * * * * * * * * * * * * * * * * * * //

dimensions      [1 0 -1 0 0 0 0];

oriented        oriented;

internalField   nonuniform List<scalar> 
370
(
1.6408e-06
-8.71381e-05
0.000174988
-0.000173314
0.000386116
-0.000211077
0.000602292
-0.000216112
0.00080436
-0.000201995
0.000987814
-0.000183375
0.00115824
-0.000170343
0.00132674
-0.00016842
0.00150689
-0.000180059
0.00171271
-0.000205731
0.00195704
-0.000244238
0.00224923
-0.000292089
0.0025906
-0.000341271
0.0029665
-0.000375802
0.00333273
-0.000366122
0.00359174
-0.00025891
0.00354809
4.37495e-05
0.00297791
0.000570289
0.00164224
0.00133577
0.0016423
0.0001526
-0.00023971
0.00049494
-0.000515575
0.000911637
-0.000627655
0.00133015
-0.000634479
0.00171678
-0.000588465
0.00206274
-0.000529163
0.00237402
-0.000481458
0.00266388
-0.000458099
0.00294733
-0.000463332
0.0032373
-0.000495518
0.00354111
-0.000547856
0.00385603
-0.000606817
0.00416301
-0.000648053
0.00441729
-0.000629885
0.00453644
-0.000485073
0.00439258
-0.000114867
0.00383444
0.000602078
0.00269264
0.00171227
0.00110918
0.00291941
0.00275158
0.000228426
-0.000468079
0.000674605
-0.00096159
0.00118289
-0.0011357
0.00166597
-0.00111727
0.00208863
-0.00101082
0.00244654
-0.000886767
0.0027503
-0.000784905
0.00301529
-0.000722769
0.0032558
-0.00070353
0.00348164
-0.000721041
0.00369538
-0.000761265
0.00388877
-0.000799871
0.00403735
-0.000796301
0.00409349
-0.000685694
0.00398128
-0.000372547
0.00360188
0.000264827
0.00287579
0.00132846
0.00180953
0.00277881
0.000645689
0.0040835
0.0033974
0.000264844
-0.000732826
0.000746687
-0.00144316
0.00125454
-0.00164316
0.00169813
-0.00156041
0.0020517
-0.00136392
0.00232264
-0.00115724
0.0025304
-0.000992199
0.00269494
-0.000886861
0.00283176
-0.000839902
0.00295021
-0.000839042
0.00305266
-0.000863253
0.00313249
-0.000879235
0.00317003
-0.000833374
0.00312718
-0.000642383
0.00294559
-0.00019053
0.00255784
0.000652982
0.00192962
0.00195706
0.00111677
0.00359202
0.000342631
0.00485797
0.00374019
0.000270619
-0.00100331
0.000715348
-0.00188751
0.00113386
-0.00206114
0.00145053
-0.00187649
0.00166003
-0.00157283
0.00178639
-0.00128302
0.00185851
-0.00106376
0.00189956
-0.000927364
0.00192472
-0.000864508
0.00194221
-0.000855972
0.00195443
-0.000874892
0.0019572
-0.000881419
0.00193692
-0.00081249
0.0018667
-0.000571584
0.00170527
-2.85563e-05
0.0014104
0.000948362
0.000974718
0.00239321
0.000475966
0.00409122
9.17305e-05
0.00524258
0.0038321
0.000231524
-0.00123465
0.000546394
-0.0022019
0.000774251
-0.00228835
0.000878895
-0.00198045
0.000885314
-0.00157857
0.000833773
-0.00123083
0.000756657
-0.000986016
0.000673877
-0.000843965
0.000595522
-0.000785524
0.000525607
-0.000785404
0.00046393
-0.000812531
0.000405643
-0.000822417
0.000339938
-0.000746051
0.000250578
-0.000481499
0.000121729
0.000100967
-4.11242e-05
0.00111185
-0.000201261
0.00255393
-0.000279211
0.00416969
-0.000191557
0.00515532
0.0036407
0.000119425
-0.00135386
0.000171048
-0.00225295
8.37579e-05
-0.00220033
-0.000106891
-0.00178905
-0.000345208
-0.00133954
-0.000588982
-0.000986389
-0.000816221
-0.000758121
-0.00101959
-0.000639936
-0.00119925
-0.000605169
-0.00135842
-0.000625513
-0.0015016
-0.000668592
-0.00163371
-0.000689518
-0.00175723
-0.000621729
-0.00186494
-0.000372997
-0.00192633
0.000163135
-0.00187862
0.00106484
-0.00164588
0.00232183
-0.00117381
0.00369817
-0.000511949
0.00449386
0.00312891
-0.000115228
-0.00123837
-0.000488392
-0.00187915
-0.00100111
-0.00168683
-0.00153113
-0.00125827
-0.00201037
-0.000859595
-0.00241936
-0.000576733
-0.00276371
-0.000413107
-0.00305848
-0.0003445
-0.00331961
-0.000343357
-0.00356003
-0.0003844
-0.00378708
-0.000440816
-0.00399846
-0.000477413
-0.00417469
-0.000444752
-0.00426919
-0.000277746
-0.00420197
9.66418e-05
-0.0038686
0.000732169
-0.00317885
0.0016327
-0.00211348
0.00263332
-0.000850994
0.00323175
0.00227807
-0.000479093
-0.000758975
-0.00137752
-0.000980007
-0.002294
-0.000769531
-0.00305271
-0.000498787
-0.00362511
-0.000286516
-0.00404595
-0.000155266
-0.0043662
-9.22668e-05
-0.0046325
-7.76332e-05
-0.00488024
-9.50545e-05
-0.00513201
-0.000132071
-0.00539577
-0.000176482
-0.00565963
-0.000212988
-0.00588323
-0.000220571
-0.00598926
-0.000171132
-0.00586547
-2.65588e-05
-0.0053703
0.000237559
-0.00438351
0.000646421
-0.00288811
0.00113836
-0.00114114
0.0014851
0.00113706
-0.000758622
-0.00173785
-0.0025065
-0.00300448
-0.00329029
-0.00344495
-0.00353669
-0.00361384
-0.00370845
-0.0038401
-0.00401617
-0.00422876
-0.00444894
-0.00461968
-0.00464586
-0.00440793
-0.00376116
-0.00262249
-0.00113716
)
;

boundaryField
{
    leftWall
    {
        type            calculated;
        value           nonuniform List<scalar> 10(0 0 0 0 0 0 -1.0842e-19 0 0 4.33681e-19);
    }
    rightWall
    {
        type            calculated;
        value           uniform 0;
    }
    topWall
    {
        type            calculated;
        value           uniform 0;
    }
    bottomWall
    {
        type            calculated;
        value           uniform 0;
    }
    frontAndBackPlanes
    {
        type            empty;
    }
}


// ************************************************************************* //
