/*--------------------------------*- C++ -*----------------------------------*\
| =========                 |                                                 |
| \\      /  F ield         | OpenFOAM: The Open Source CFD Toolbox           |
|  \\    /   O peration     | Version:  2506                                  |
|   \\  /    A nd           | Website:  www.openfoam.com                      |
|    \\/     M anipulation  |                                                 |
\*---------------------------------------------------------------------------*/
FoamFile
{
    version     2.0;
    format      ascii;
    arch        "LSB;label=32;scalar=64";
    class       volVectorField;
    location    "50.4";
    object      U;
}
// * * * * * * * * * * * * * * * * * * * * * * * * * * * * * * * * * * * * * //

dimensions      [0 1 -1 0 0 0 0];

internalField   nonuniform List<vector> 
200
(
(-0.000118114 -0.00028612 0)
(0.000347775 -0.000449872 0)
(0.00125443 -0.000445799 0)
(0.00221483 -0.000401554 0)
(0.0030683 -0.000338635 0)
(0.00381907 -0.000285441 0)
(0.00449004 -0.000264065 0)
(0.00512747 -0.000284584 0)
(0.00579024 -0.000350938 0)
(0.00654027 -0.00046545 0)
(0.00743662 -0.000630019 0)
(0.00852957 -0.000843707 0)
(0.00984895 -0.00109557 0)
(0.0113808 -0.00135044 0)
(0.0130214 -0.00152436 0)
(0.0144805 -0.00143819 0)
(0.0151257 -0.000727065 0)
(0.0140022 0.00120916 0)
(0.0101109 0.00452302 0)
(0.00306571 0.00647165 0)
(0.000157308 -0.00141976 0)
(0.00135134 -0.00284101 0)
(0.0030268 -0.00332452 0)
(0.0048031 -0.00326389 0)
(0.00644337 -0.00295502 0)
(0.00788165 -0.00262335 0)
(0.00914071 -0.00240362 0)
(0.0102814 -0.00236011 0)
(0.0113749 -0.0025125 0)
(0.0124867 -0.00285324 0)
(0.0136646 -0.00335201 0)
(0.0149248 -0.00394473 0)
(0.0162321 -0.00450446 0)
(0.0174667 -0.00479131 0)
(0.0183783 -0.00438093 0)
(0.0185374 -0.00257917 0)
(0.0172858 0.00161541 0)
(0.0138565 0.00900001 0)
(0.00817056 0.018047 0)
(0.00142616 0.0187836 0)
(0.000254227 -0.00314884 0)
(0.0018693 -0.00631107 0)
(0.00391751 -0.00733051 0)
(0.00598953 -0.00711325 0)
(0.00781717 -0.00637272 0)
(0.00934268 -0.00557505 0)
(0.0106085 -0.00497409 0)
(0.0116868 -0.00467563 0)
(0.0126474 -0.00469417 0)
(0.013544 -0.00498801 0)
(0.0144051 -0.00546834 0)
(0.0152247 -0.00598049 0)
(0.0159456 -0.00625678 0)
(0.0164322 -0.00584615 0)
(0.0164383 -0.00404097 0)
(0.0155757 0.000141152 0)
(0.0134068 0.00769465 0)
(0.00972587 0.0186568 0)
(0.00499804 0.029454 0)
(0.000641406 0.0259479 0)
(0.000300642 -0.00533338 0)
(0.00208942 -0.0103466 0)
(0.00418048 -0.0116707 0)
(0.00614484 -0.0110158 0)
(0.0077381 -0.00960629 0)
(0.00894918 -0.0081726 0)
(0.00985939 -0.00707139 0)
(0.0105611 -0.0064216 0)
(0.0111279 -0.00620874 0)
(0.011608 -0.00634485 0)
(0.0120243 -0.00668383 0)
(0.0123721 -0.00699385 0)
(0.0126076 -0.00689196 0)
(0.0126275 -0.00575919 0)
(0.0122438 -0.00268639 0)
(0.0111544 0.00343585 0)
(0.00913267 0.0133632 0)
(0.00615159 0.0263978 0)
(0.00276531 0.0373194 0)
(0.000242502 0.0298582 0)
(0.000324939 -0.00766148 0)
(0.00205192 -0.014314 0)
(0.00385156 -0.0155885 0)
(0.00535144 -0.0141995 0)
(0.00639163 -0.0119476 0)
(0.00703577 -0.00981387 0)
(0.00740952 -0.00821373 0)
(0.00762039 -0.00723708 0)
(0.00773896 -0.00681538 0)
(0.00780514 -0.00680969 0)
(0.00783749 -0.00702857 0)
(0.0078356 -0.00718633 0)
(0.00777229 -0.00681636 0)
(0.00757868 -0.00517264 0)
(0.00712805 -0.0011974 0)
(0.0062075 0.00627139 0)
(0.00472531 0.017723 0)
(0.00277554 0.0317512 0)
(0.000863013 0.0420056 0)
(-5.69703e-05 0.0315242 0)
(0.00030901 -0.00984385 0)
(0.00165739 -0.0175971 0)
(0.00275985 -0.0183789 0)
(0.00341322 -0.016036 0)
(0.003614 -0.0129244 0)
(0.00351263 -0.0101967 0)
(0.00325955 -0.00824828 0)
(0.00295128 -0.00709171 0)
(0.00263604 -0.00658813 0)
(0.00233442 -0.00655268 0)
(0.00205256 -0.00676192 0)
(0.00178277 -0.00689081 0)
(0.00149715 -0.00640835 0)
(0.00114511 -0.00447855 0)
(0.000660132 3.82375e-05 0)
(5.88284e-06 0.00826371 0)
(-0.000696271 0.0203686 0)
(-0.00120981 0.0343113 0)
(-0.00120758 0.0432827 0)
(-0.000341637 0.031078 0)
(0.000217154 -0.0114079 0)
(0.000690481 -0.0192883 0)
(0.000554262 -0.0191272 0)
(-7.30998e-05 -0.0158123 0)
(-0.000970144 -0.0120708 0)
(-0.0019331 -0.00906764 0)
(-0.00285041 -0.00706932 0)
(-0.00368085 -0.00597008 0)
(-0.00442192 -0.00556168 0)
(-0.00508551 -0.00562532 0)
(-0.0056887 -0.00591255 0)
(-0.00625353 -0.00606607 0)
(-0.0068027 -0.00552339 0)
(-0.00733652 -0.00345849 0)
(-0.00778781 0.0011424 0)
(-0.00791694 0.00910429 0)
(-0.0074018 0.0203719 0)
(-0.00595921 0.0328752 0)
(-0.0036163 0.0402772 0)
(-0.000688228 0.0281789 0)
(-2.47527e-05 -0.0115125 0)
(-0.00114005 -0.0180438 0)
(-0.00310908 -0.0166559 0)
(-0.00533236 -0.012808 0)
(-0.00739909 -0.00908501 0)
(-0.0091621 -0.00636033 0)
(-0.0106269 -0.004703 0)
(-0.0118559 -0.00391102 0)
(-0.0129213 -0.0037454 0)
(-0.0138857 -0.00398466 0)
(-0.014796 -0.00438784 0)
(-0.0156731 -0.00462327 0)
(-0.0164898 -0.0042032 0)
(-0.0171291 -0.00246635 0)
(-0.0173216 0.00133422 0)
(-0.0166212 0.00777222 0)
(-0.0145902 0.0167832 0)
(-0.010975 0.0266852 0)
(-0.00615856 0.0324151 0)
(-0.0010653 0.022559 0)
(-0.000540741 -0.00904391 0)
(-0.00385687 -0.0126544 0)
(-0.00775593 -0.0104776 0)
(-0.0112618 -0.00713114 0)
(-0.0139462 -0.00437741 0)
(-0.0158832 -0.00260727 0)
(-0.0172975 -0.00169769 0)
(-0.0184054 -0.00141272 0)
(-0.0193755 -0.00154451 0)
(-0.0203261 -0.00192768 0)
(-0.0213251 -0.00240134 0)
(-0.0223775 -0.00275833 0)
(-0.0233948 -0.00270574 0)
(-0.0241575 -0.00185488 0)
(-0.0242713 0.000245112 0)
(-0.023131 0.00401417 0)
(-0.0201586 0.00953971 0)
(-0.0150352 0.0158702 0)
(-0.00832495 0.0198885 0)
(-0.00143479 0.014289 0)
(-0.00139044 -0.00301639 0)
(-0.00539323 -0.0033483 0)
(-0.00902422 -0.00219619 0)
(-0.0116079 -0.00108325 0)
(-0.0131204 -0.0003699 0)
(-0.01392 -1.0274e-05 0)
(-0.0143487 0.000111513 0)
(-0.0146432 8.86773e-05 0)
(-0.0149559 -2.06612e-05 0)
(-0.0153843 -0.000184112 0)
(-0.0159835 -0.000379871 0)
(-0.0167603 -0.000580336 0)
(-0.017653 -0.000737954 0)
(-0.0184977 -0.000774399 0)
(-0.0189858 -0.000567497 0)
(-0.0186573 6.83961e-05 0)
(-0.0168966 0.00132551 0)
(-0.013194 0.00313974 0)
(-0.00780716 0.00476526 0)
(-0.00189296 0.00408425 0)
)
;

boundaryField
{
    leftWall
    {
        type            fixedValue;
        value           uniform (0 0 0);
    }
    rightWall
    {
        type            fixedValue;
        value           uniform (0 0 0);
    }
    topWall
    {
        type            fixedValue;
        value           uniform (0 0 0);
    }
    bottomWall
    {
        type            fixedValue;
        value           uniform (0 0 0);
    }
    frontAndBackPlanes
    {
        type            empty;
    }
}


// ************************************************************************* //
