/*--------------------------------*- C++ -*----------------------------------*\
| =========                 |                                                 |
| \\      /  F ield         | OpenFOAM: The Open Source CFD Toolbox           |
|  \\    /   O peration     | Version:  2506                                  |
|   \\  /    A nd           | Website:  www.openfoam.com                      |
|    \\/     M anipulation  |                                                 |
\*---------------------------------------------------------------------------*/
FoamFile
{
    version     2.0;
    format      ascii;
    arch        "LSB;label=32;scalar=64";
    class       volScalarField;
    location    "21";
    object      T;
}
// * * * * * * * * * * * * * * * * * * * * * * * * * * * * * * * * * * * * * //

dimensions      [0 0 0 1 0 0 0];

internalField   nonuniform List<scalar> 
200
(
273.15
273.149
273.148
273.147
273.147
273.146
273.146
273.146
273.146
273.146
273.146
273.146
273.146
273.147
273.15
273.157
273.178
273.238
273.401
273.789
273.149
273.148
273.146
273.145
273.144
273.144
273.143
273.143
273.143
273.143
273.143
273.143
273.143
273.144
273.146
273.151
273.17
273.23
273.402
273.806
273.149
273.146
273.143
273.141
273.14
273.139
273.138
273.138
273.138
273.138
273.138
273.139
273.139
273.139
273.141
273.148
273.169
273.236
273.422
273.83
273.148
273.144
273.14
273.137
273.135
273.134
273.133
273.134
273.134
273.135
273.135
273.136
273.136
273.136
273.138
273.146
273.172
273.249
273.448
273.854
273.147
273.141
273.136
273.133
273.13
273.129
273.129
273.131
273.133
273.135
273.137
273.138
273.138
273.137
273.139
273.15
273.182
273.27
273.482
273.879
273.146
273.139
273.132
273.128
273.125
273.125
273.128
273.133
273.14
273.147
273.152
273.154
273.152
273.149
273.152
273.166
273.207
273.309
273.532
273.908
273.145
273.136
273.128
273.123
273.121
273.124
273.132
273.146
273.162
273.178
273.189
273.194
273.192
273.191
273.198
273.221
273.273
273.383
273.594
273.934
273.144
273.132
273.123
273.119
273.12
273.129
273.148
273.176
273.208
273.238
273.261
273.276
273.284
273.293
273.306
273.334
273.389
273.492
273.674
273.962
273.143
273.129
273.119
273.115
273.12
273.138
273.171
273.217
273.27
273.322
273.367
273.403
273.43
273.451
273.472
273.502
273.552
273.635
273.774
273.997
273.142
273.128
273.117
273.111
273.115
273.132
273.168
273.221
273.287
273.357
273.425
273.485
273.537
273.582
273.621
273.662
273.712
273.78
273.881
274.036
)
;

boundaryField
{
    leftWall
    {
        type            fixedValue;
        value           uniform 273.15;
    }
    rightWall
    {
        type            customNeumannDirichletCoupledBoundary;
        refValue        nonuniform List<scalar> 10(274.125 274.125 274.127 274.129 274.13 274.132 274.134 274.136 274.138 274.14);
        refGradient     uniform 0;
        valueFraction   uniform 1;
        source          uniform 0;
        value           nonuniform List<scalar> 10(274.125 274.125 274.127 274.129 274.13 274.132 274.134 274.136 274.138 274.14);
        kappaMethod     fluidThermo;
    }
    topWall
    {
        type            zeroGradient;
    }
    bottomWall
    {
        type            zeroGradient;
    }
    frontAndBackPlanes
    {
        type            empty;
    }
}


// ************************************************************************* //
