/*--------------------------------*- C++ -*----------------------------------*\
| =========                 |                                                 |
| \\      /  F ield         | OpenFOAM: The Open Source CFD Toolbox           |
|  \\    /   O peration     | Version:  2506                                  |
|   \\  /    A nd           | Website:  www.openfoam.com                      |
|    \\/     M anipulation  |                                                 |
\*---------------------------------------------------------------------------*/
FoamFile
{
    version     2.0;
    format      ascii;
    arch        "LSB;label=32;scalar=64";
    class       volScalarField;
    location    "17";
    object      T;
}
// * * * * * * * * * * * * * * * * * * * * * * * * * * * * * * * * * * * * * //

dimensions      [0 0 0 1 0 0 0];

internalField   nonuniform List<scalar> 
200
(
273.15
273.149
273.148
273.148
273.147
273.147
273.147
273.147
273.147
273.147
273.147
273.147
273.147
273.148
273.15
273.157
273.178
273.237
273.4
273.787
273.149
273.147
273.146
273.145
273.144
273.144
273.143
273.143
273.143
273.143
273.143
273.143
273.143
273.144
273.146
273.152
273.171
273.231
273.403
273.806
273.148
273.145
273.142
273.141
273.139
273.139
273.138
273.138
273.138
273.138
273.138
273.138
273.138
273.139
273.142
273.149
273.171
273.239
273.425
273.832
273.147
273.142
273.139
273.136
273.134
273.133
273.132
273.132
273.132
273.132
273.133
273.133
273.134
273.135
273.138
273.147
273.175
273.254
273.453
273.857
273.146
273.14
273.134
273.131
273.128
273.127
273.127
273.127
273.127
273.128
273.129
273.13
273.131
273.132
273.136
273.149
273.184
273.275
273.487
273.882
273.145
273.137
273.13
273.125
273.123
273.121
273.121
273.122
273.123
273.126
273.13
273.134
273.136
273.138
273.144
273.161
273.206
273.31
273.532
273.909
273.144
273.133
273.125
273.12
273.117
273.116
273.116
273.119
273.124
273.132
273.143
273.154
273.162
273.168
273.179
273.207
273.263
273.377
273.59
273.932
273.143
273.13
273.12
273.114
273.112
273.111
273.114
273.12
273.133
273.154
273.179
273.205
273.228
273.248
273.272
273.307
273.367
273.475
273.662
273.957
273.142
273.128
273.116
273.11
273.107
273.107
273.112
273.125
273.15
273.189
273.237
273.288
273.337
273.38
273.417
273.458
273.515
273.606
273.753
273.987
273.142
273.126
273.114
273.106
273.102
273.102
273.107
273.12
273.149
273.196
273.259
273.331
273.404
273.473
273.535
273.593
273.657
273.736
273.849
274.021
)
;

boundaryField
{
    leftWall
    {
        type            fixedValue;
        value           uniform 273.15;
    }
    rightWall
    {
        type            customNeumannDirichletCoupledBoundary;
        refValue        nonuniform List<scalar> 10(274.125 274.126 274.127 274.129 274.13 274.132 274.134 274.136 274.137 274.139);
        refGradient     uniform 0;
        valueFraction   uniform 1;
        source          uniform 0;
        value           nonuniform List<scalar> 10(274.125 274.126 274.127 274.129 274.13 274.132 274.134 274.136 274.137 274.139);
        kappaMethod     fluidThermo;
    }
    topWall
    {
        type            zeroGradient;
    }
    bottomWall
    {
        type            zeroGradient;
    }
    frontAndBackPlanes
    {
        type            empty;
    }
}


// ************************************************************************* //
