/*--------------------------------*- C++ -*----------------------------------*\
| =========                 |                                                 |
| \\      /  F ield         | OpenFOAM: The Open Source CFD Toolbox           |
|  \\    /   O peration     | Version:  2506                                  |
|   \\  /    A nd           | Website:  www.openfoam.com                      |
|    \\/     M anipulation  |                                                 |
\*---------------------------------------------------------------------------*/
FoamFile
{
    version     2.0;
    format      ascii;
    arch        "LSB;label=32;scalar=64";
    class       surfaceScalarField;
    location    "121";
    object      phi;
}
// * * * * * * * * * * * * * * * * * * * * * * * * * * * * * * * * * * * * * //

dimensions      [1 0 -1 0 0 0 0];

oriented        oriented;

internalField   nonuniform List<scalar> 
370
(
0.000325655
-0.000359962
0.000856198
-0.000530482
0.00131516
-0.00045887
0.00162958
-0.000314314
0.00180907
-0.000179372
0.00189466
-8.54587e-05
0.00193148
-3.66753e-05
0.00195674
-2.51081e-05
0.0019973
-4.03945e-05
0.00207109
-7.36272e-05
0.00218924
-0.000117976
0.00235789
-0.000168473
0.00257744
-0.000219362
0.00283654
-0.000258907
0.00309843
-0.000261691
0.00327537
-0.000176746
0.00319647
7.91108e-05
0.00264931
0.000547362
0.00143544
0.00121405
0.00143553
0.000446165
-0.000806096
0.00119384
-0.00127807
0.0019057
-0.00117061
0.00245336
-0.000861836
0.00282379
-0.000549655
0.003054
-0.00031551
0.00319433
-0.000176846
0.00329069
-0.000121298
0.00337718
-0.000126717
0.00347497
-0.000171244
0.00359382
-0.000236643
0.00373237
-0.000306836
0.00387547
-0.000362275
0.00398727
-0.000370517
0.00399996
-0.000274183
0.00380748
1.59343e-05
0.00327181
0.000614982
0.00226283
0.00155654
0.000912815
0.00256424
0.00234844
0.000428609
-0.00123466
0.00112583
-0.00197518
0.00178692
-0.00183155
0.0023004
-0.00137514
0.00265745
-0.000906516
0.00289067
-0.000548535
0.00304113
-0.000327114
0.00314375
-0.000223719
0.00322265
-0.000205422
0.0032912
-0.000239607
0.00335314
-0.00029838
0.00340242
-0.000355924
0.00342063
-0.00038028
0.00337184
-0.00032152
0.00319855
-0.000100692
0.00282647
0.000388227
0.00220495
0.00123671
0.0013459
0.0024158
0.000453961
0.00345635
0.00280248
0.000365986
-0.0016006
0.000923221
-0.00253229
0.00141632
-0.00232447
0.0017734
-0.00173202
0.00200667
-0.00113957
0.00215278
-0.000694424
0.00224548
-0.000419595
0.00230734
-0.000285367
0.00235034
-0.00024821
0.00237908
-0.000268132
0.00239317
-0.000312265
0.00238707
-0.000349614
0.00234714
-0.000340135
0.00224759
-0.000221751
0.0020501
9.70211e-05
0.00171809
0.000720459
0.00123721
0.00171781
0.000662237
0.00299098
0.000166717
0.00395204
0.00296927
0.000281384
-0.00188194
0.000648076
-0.00289884
0.000916315
-0.00259251
0.00106808
-0.00188356
0.00114099
-0.00121226
0.00117431
-0.000727515
0.00119172
-0.000436783
0.00120226
-0.000295687
0.00120676
-0.000252491
0.00120359
-0.000264743
0.00119091
-0.000299373
0.00116532
-0.000323802
0.0011182
-0.000292798
0.00103273
-0.000136063
0.000885861
0.000244112
0.000662991
0.000943556
0.000377642
0.00200339
0.000101509
0.00326733
-4.249e-05
0.00409621
0.00292685
0.000172122
-0.002054
0.000294923
-0.00302149
0.000293972
-0.00259136
0.000217351
-0.00180671
0.000122925
-0.00111761
4.19317e-05
-0.000646297
-1.86984e-05
-0.000375934
-6.3919e-05
-0.000250251
-0.000100732
-0.000215464
-0.000133845
-0.000231418
-0.000165924
-0.000267082
-0.000200303
-0.00028921
-0.000243298
-0.000249588
-0.000303292
-7.58487e-05
-0.00038237
0.000323417
-0.000467274
0.00102869
-0.000515367
0.0020517
-0.000455752
0.00320792
-0.000241785
0.0038824
0.00268512
-8.5659e-07
-0.00205308
-0.0001936
-0.00282858
-0.000509897
-0.00227485
-0.000832882
-0.00148351
-0.00109922
-0.000851053
-0.001297
-0.000448306
-0.00143917
-0.000233554
-0.0015435
-0.000145713
-0.0016237
-0.000135052
-0.00168837
-0.000166551
-0.00174292
-0.000212319
-0.00179114
-0.000240788
-0.00183349
-0.000207031
-0.0018616
-4.75315e-05
-0.00184694
0.000308981
-0.00174426
0.000926224
-0.00149198
0.00179963
-0.00104239
0.00275852
-0.000443911
0.00328406
0.00224127
-0.000268371
-0.00178464
-0.000890514
-0.00220628
-0.00156684
-0.00159832
-0.0021304
-0.000919742
-0.00254131
-0.000439928
-0.00282223
-0.00016719
-0.00301151
-4.40653e-05
-0.00314296
-1.40672e-05
-0.00324137
-3.64548e-05
-0.00332279
-8.49375e-05
-0.00339557
-0.000139352
-0.00345914
-0.000177026
-0.00349991
-0.000166069
-0.00348417
-6.30899e-05
-0.00335635
0.000181351
-0.00304289
0.00061295
-0.00247373
0.00123066
-0.0016305
0.00191546
-0.000650199
0.00230388
0.00159112
-0.000690401
-0.00109417
-0.00180884
-0.00108766
-0.00276531
-0.000641651
-0.00341057
-0.000274277
-0.00378864
-6.16524e-05
-0.00399341
3.77707e-05
-0.0041034
6.61192e-05
-0.00417005
5.27589e-05
-0.00422641
2.00793e-05
-0.00429171
-1.947e-05
-0.00437154
-5.93597e-05
-0.00445743
-9.09788e-05
-0.00452212
-0.000101222
-0.00451322
-7.18374e-05
-0.00435444
2.27159e-05
-0.00394262
0.000201274
-0.00319102
0.0004792
-0.00208618
0.000810743
-0.000817203
0.00103499
0.000773956
-0.00109409
-0.00218158
-0.00282303
-0.00309711
-0.00315857
-0.00312062
-0.00305432
-0.0030014
-0.00298116
-0.00300048
-0.0030597
-0.00315055
-0.00325165
-0.00332337
-0.00330054
-0.00309916
-0.00261987
-0.00180904
-0.000773983
)
;

boundaryField
{
    leftWall
    {
        type            calculated;
        value           nonuniform List<scalar> 10(0 0 0 0 0 0 0 0 0 -8.67362e-19);
    }
    rightWall
    {
        type            calculated;
        value           nonuniform List<scalar> 10(0 0 0 0 4.33681e-19 0 -4.33681e-19 0 0 0);
    }
    topWall
    {
        type            calculated;
        value           uniform 0;
    }
    bottomWall
    {
        type            calculated;
        value           uniform 0;
    }
    frontAndBackPlanes
    {
        type            empty;
    }
}


// ************************************************************************* //
