/*--------------------------------*- C++ -*----------------------------------*\
| =========                 |                                                 |
| \\      /  F ield         | OpenFOAM: The Open Source CFD Toolbox           |
|  \\    /   O peration     | Version:  2506                                  |
|   \\  /    A nd           | Website:  www.openfoam.com                      |
|    \\/     M anipulation  |                                                 |
\*---------------------------------------------------------------------------*/
FoamFile
{
    version     2.0;
    format      ascii;
    arch        "LSB;label=32;scalar=64";
    class       volScalarField;
    location    "121";
    object      T;
}
// * * * * * * * * * * * * * * * * * * * * * * * * * * * * * * * * * * * * * //

dimensions      [0 0 0 1 0 0 0];

internalField   nonuniform List<scalar> 
200
(
273.166
273.194
273.214
273.228
273.238
273.244
273.249
273.253
273.256
273.26
273.264
273.268
273.272
273.276
273.282
273.292
273.316
273.377
273.529
273.861
273.176
273.221
273.253
273.272
273.283
273.288
273.291
273.292
273.294
273.296
273.299
273.302
273.306
273.308
273.311
273.317
273.337
273.397
273.554
273.886
273.19
273.26
273.308
273.337
273.35
273.356
273.357
273.356
273.356
273.356
273.356
273.357
273.358
273.357
273.356
273.359
273.376
273.437
273.598
273.919
273.204
273.3
273.366
273.404
273.421
273.426
273.426
273.423
273.42
273.418
273.416
273.414
273.411
273.406
273.401
273.401
273.418
273.483
273.647
273.949
273.218
273.34
273.423
273.468
273.487
273.491
273.488
273.484
273.479
273.476
273.472
273.468
273.462
273.454
273.445
273.444
273.464
273.535
273.699
273.975
273.233
273.38
273.478
273.528
273.547
273.549
273.545
273.54
273.535
273.532
273.529
273.524
273.517
273.506
273.498
273.5
273.526
273.601
273.754
273.998
273.249
273.424
273.533
273.584
273.601
273.603
273.601
273.599
273.599
273.598
273.597
273.594
273.588
273.581
273.577
273.583
273.611
273.68
273.813
274.02
273.271
273.469
273.583
273.635
273.655
273.663
273.667
273.672
273.676
273.68
273.684
273.685
273.685
273.684
273.684
273.692
273.717
273.774
273.879
274.044
273.294
273.509
273.628
273.684
273.711
273.727
273.739
273.749
273.758
273.768
273.777
273.785
273.792
273.799
273.805
273.816
273.837
273.879
273.954
274.072
273.31
273.531
273.649
273.709
273.74
273.76
273.775
273.789
273.804
273.818
273.832
273.847
273.862
273.877
273.894
273.912
273.935
273.969
274.021
274.098
)
;

boundaryField
{
    leftWall
    {
        type            fixedValue;
        value           uniform 273.15;
    }
    rightWall
    {
        type            customNeumannDirichletCoupledBoundary;
        refValue        nonuniform List<scalar> 10(274.13 274.131 274.133 274.135 274.137 274.139 274.14 274.142 274.143 274.145);
        refGradient     uniform 0;
        valueFraction   uniform 1;
        source          uniform 0;
        value           nonuniform List<scalar> 10(274.13 274.131 274.133 274.135 274.137 274.139 274.14 274.142 274.143 274.145);
        kappaMethod     fluidThermo;
    }
    topWall
    {
        type            zeroGradient;
    }
    bottomWall
    {
        type            zeroGradient;
    }
    frontAndBackPlanes
    {
        type            empty;
    }
}


// ************************************************************************* //
