/*--------------------------------*- C++ -*----------------------------------*\
| =========                 |                                                 |
| \\      /  F ield         | OpenFOAM: The Open Source CFD Toolbox           |
|  \\    /   O peration     | Version:  2506                                  |
|   \\  /    A nd           | Website:  www.openfoam.com                      |
|    \\/     M anipulation  |                                                 |
\*---------------------------------------------------------------------------*/
FoamFile
{
    version     2.0;
    format      ascii;
    arch        "LSB;label=32;scalar=64";
    class       volVectorField;
    location    "46";
    object      U;
}
// * * * * * * * * * * * * * * * * * * * * * * * * * * * * * * * * * * * * * //

dimensions      [0 1 -1 0 0 0 0];

internalField   nonuniform List<vector> 
200
(
(-0.000163452 -0.000234083 0)
(0.000214975 -0.000385434 0)
(0.00107607 -0.000410742 0)
(0.00203059 -0.000403077 0)
(0.00292406 -0.000365696 0)
(0.00374565 -0.000324446 0)
(0.0044993 -0.000304723 0)
(0.00521731 -0.000321066 0)
(0.00595072 -0.000381067 0)
(0.00675813 -0.000489141 0)
(0.00769753 -0.000647675 0)
(0.00881848 -0.000855039 0)
(0.0101492 -0.00109927 0)
(0.0116737 -0.001345 0)
(0.0132868 -0.0015098 0)
(0.014701 -0.00141737 0)
(0.0152948 -0.000705292 0)
(0.01412 0.00122644 0)
(0.010179 0.00454171 0)
(0.00308155 0.00650068 0)
(0.000128494 -0.00121767 0)
(0.00122418 -0.00260227 0)
(0.00285735 -0.00322832 0)
(0.00466156 -0.00334207 0)
(0.0063928 -0.00316488 0)
(0.00796005 -0.00290221 0)
(0.00936051 -0.00269712 0)
(0.0106365 -0.00263177 0)
(0.0118487 -0.00274281 0)
(0.0130578 -0.00303392 0)
(0.0143093 -0.00347926 0)
(0.0156171 -0.00401397 0)
(0.0169421 -0.00450873 0)
(0.0181595 -0.00472465 0)
(0.0190163 -0.00424576 0)
(0.0190844 -0.00239177 0)
(0.01771 0.00182935 0)
(0.0141435 0.00921122 0)
(0.0083218 0.0182483 0)
(0.00145182 0.0189436 0)
(0.000230832 -0.00280989 0)
(0.00178153 -0.00596532 0)
(0.00383722 -0.0072679 0)
(0.0059857 -0.00736274 0)
(0.00793736 -0.00684355 0)
(0.00960624 -0.00615163 0)
(0.0110132 -0.00556158 0)
(0.0122185 -0.00521301 0)
(0.0132881 -0.00515008 0)
(0.0142754 -0.00534927 0)
(0.0152095 -0.00572722 0)
(0.0160823 -0.00612483 0)
(0.0168297 -0.0062669 0)
(0.0173064 -0.00570165 0)
(0.017257 -0.00373636 0)
(0.0162853 0.000583658 0)
(0.0139683 0.00821598 0)
(0.0101089 0.0192015 0)
(0.00519597 0.0299762 0)
(0.000672336 0.0263139 0)
(0.00028384 -0.00490652 0)
(0.00204978 -0.00999412 0)
(0.00419389 -0.0117425 0)
(0.00626293 -0.0115014 0)
(0.00797996 -0.0103535 0)
(0.00930754 -0.00901902 0)
(0.0103149 -0.00789823 0)
(0.0110943 -0.00716233 0)
(0.0117256 -0.00683659 0)
(0.0122645 -0.00685292 0)
(0.0127381 -0.00706522 0)
(0.0131398 -0.00722686 0)
(0.013417 -0.00693586 0)
(0.0134512 -0.00556599 0)
(0.0130391 -0.0022296 0)
(0.0118647 0.00413088 0)
(0.00970692 0.0142222 0)
(0.00654788 0.0273308 0)
(0.00296874 0.038222 0)
(0.000273022 0.0304561 0)
(0.000316534 -0.00719753 0)
(0.00205719 -0.0140363 0)
(0.00393389 -0.0158465 0)
(0.00553292 -0.0149116 0)
(0.00665738 -0.0128987 0)
(0.00735334 -0.010814 0)
(0.00774925 -0.00914702 0)
(0.00796661 -0.00805671 0)
(0.00809209 -0.00751754 0)
(0.00817752 -0.00740384 0)
(0.00824639 -0.00751144 0)
(0.0082955 -0.00752435 0)
(0.00828786 -0.00694175 0)
(0.00813935 -0.00499975 0)
(0.00770514 -0.000663409 0)
(0.00675376 0.00714824 0)
(0.00518947 0.0188636 0)
(0.0031056 0.033038 0)
(0.00103369 0.043268 0)
(-3.12977e-05 0.032332 0)
(0.000308616 -0.00938662 0)
(0.00169453 -0.0174393 0)
(0.00287204 -0.0188119 0)
(0.00358748 -0.0168911 0)
(0.00380485 -0.0139388 0)
(0.00367311 -0.0111848 0)
(0.00336292 -0.00912885 0)
(0.00299565 -0.00785872 0)
(0.00263834 -0.00726954 0)
(0.00232078 -0.0071739 0)
(0.00204973 -0.0073193 0)
(0.00181266 -0.00733677 0)
(0.00157472 -0.00665113 0)
(0.00127769 -0.00440161 0)
(0.000837948 0.00053163 0)
(0.000223311 0.00917563 0)
(-0.000482453 0.0216583 0)
(-0.00104587 0.0358439 0)
(-0.00112378 0.0448128 0)
(-0.000331879 0.0320299 0)
(0.000222639 -0.0109865 0)
(0.000743286 -0.0192535 0)
(0.000658356 -0.0196693 0)
(3.51642e-05 -0.0166818 0)
(-0.000920234 -0.0129869 0)
(-0.00198341 -0.00988737 0)
(-0.00301325 -0.00776898 0)
(-0.00394517 -0.00658785 0)
(-0.00476508 -0.00614732 0)
(-0.00548275 -0.00620719 0)
(-0.00611773 -0.00647928 0)
(-0.00669436 -0.0065598 0)
(-0.00723441 -0.00584456 0)
(-0.00773377 -0.00348486 0)
(-0.00812124 0.00151978 0)
(-0.00816721 0.00993407 0)
(-0.00756732 0.0216226 0)
(-0.00605402 0.0344239 0)
(-0.00366247 0.0418543 0)
(-0.000698351 0.0291569 0)
(-1.43852e-05 -0.0111421 0)
(-0.00108398 -0.0181017 0)
(-0.00304592 -0.0172049 0)
(-0.00533106 -0.0135468 0)
(-0.00751431 -0.00977321 0)
(-0.00941679 -0.0069159 0)
(-0.0110196 -0.00515022 0)
(-0.0123739 -0.00431203 0)
(-0.0135502 -0.00415501 0)
(-0.0146132 -0.00442798 0)
(-0.0156101 -0.00485179 0)
(-0.0165572 -0.00505612 0)
(-0.0174168 -0.00452092 0)
(-0.018057 -0.00256634 0)
(-0.0181913 0.00155174 0)
(-0.0173715 0.00837724 0)
(-0.0151715 0.0177768 0)
(-0.0113607 0.027977 0)
(-0.00635312 0.0337659 0)
(-0.00109793 0.0234046 0)
(-0.000518925 -0.00874542 0)
(-0.00378684 -0.0127471 0)
(-0.00773932 -0.0109163 0)
(-0.0113769 -0.00763524 0)
(-0.0142206 -0.00477584 0)
(-0.0163055 -0.00287041 0)
(-0.0178454 -0.001872 0)
(-0.0190633 -0.00156164 0)
(-0.0201389 -0.00171709 0)
(-0.0211982 -0.00214713 0)
(-0.0223096 -0.00266328 0)
(-0.0234693 -0.00303304 0)
(-0.0245731 -0.00294273 0)
(-0.0253794 -0.00198976 0)
(-0.0254697 0.000282569 0)
(-0.0242174 0.00429024 0)
(-0.0210441 0.0100834 0)
(-0.0156495 0.0166443 0)
(-0.00864305 0.0207432 0)
(-0.00148768 0.0148458 0)
(-0.00132335 -0.00288424 0)
(-0.00526069 -0.00337231 0)
(-0.00899756 -0.00232461 0)
(-0.011751 -0.00120927 0)
(-0.0134104 -0.000445198 0)
(-0.0143043 -3.60976e-05 0)
(-0.0147845 0.000114098 0)
(-0.0151111 9.73159e-05 0)
(-0.0154572 -2.24083e-05 0)
(-0.0159332 -0.000205413 0)
(-0.0165985 -0.000423329 0)
(-0.0174557 -0.000642866 0)
(-0.0184319 -0.000811392 0)
(-0.0193459 -0.000845804 0)
(-0.0198665 -0.00061844 0)
(-0.0195111 6.42758e-05 0)
(-0.0176434 0.00139474 0)
(-0.0137499 0.00329304 0)
(-0.00811954 0.0049747 0)
(-0.00196596 0.00424579 0)
)
;

boundaryField
{
    leftWall
    {
        type            fixedValue;
        value           uniform (0 0 0);
    }
    rightWall
    {
        type            fixedValue;
        value           uniform (0 0 0);
    }
    topWall
    {
        type            fixedValue;
        value           uniform (0 0 0);
    }
    bottomWall
    {
        type            fixedValue;
        value           uniform (0 0 0);
    }
    frontAndBackPlanes
    {
        type            empty;
    }
}


// ************************************************************************* //
