/*--------------------------------*- C++ -*----------------------------------*\
| =========                 |                                                 |
| \\      /  F ield         | OpenFOAM: The Open Source CFD Toolbox           |
|  \\    /   O peration     | Version:  2506                                  |
|   \\  /    A nd           | Website:  www.openfoam.com                      |
|    \\/     M anipulation  |                                                 |
\*---------------------------------------------------------------------------*/
FoamFile
{
    version     2.0;
    format      ascii;
    arch        "LSB;label=32;scalar=64";
    class       volScalarField;
    location    "1";
    object      T;
}
// * * * * * * * * * * * * * * * * * * * * * * * * * * * * * * * * * * * * * //

dimensions      [0 0 0 1 0 0 0];

internalField   nonuniform List<scalar> 
200
(
273.15
273.15
273.151
273.151
273.151
273.151
273.151
273.151
273.151
273.151
273.151
273.151
273.151
273.151
273.151
273.151
273.151
273.151
273.161
273.308
273.146
273.145
273.145
273.145
273.145
273.145
273.145
273.145
273.145
273.145
273.145
273.145
273.145
273.145
273.145
273.145
273.145
273.146
273.156
273.305
273.142
273.139
273.139
273.139
273.139
273.139
273.139
273.139
273.139
273.139
273.139
273.139
273.139
273.139
273.139
273.139
273.139
273.139
273.15
273.301
273.137
273.133
273.132
273.132
273.132
273.132
273.132
273.132
273.132
273.132
273.132
273.132
273.132
273.132
273.132
273.132
273.132
273.133
273.144
273.296
273.133
273.127
273.126
273.126
273.126
273.126
273.126
273.126
273.126
273.126
273.126
273.126
273.126
273.126
273.126
273.126
273.126
273.127
273.137
273.292
273.128
273.12
273.12
273.12
273.12
273.12
273.12
273.12
273.12
273.12
273.12
273.12
273.12
273.12
273.12
273.12
273.12
273.12
273.131
273.287
273.124
273.114
273.113
273.113
273.113
273.113
273.113
273.113
273.113
273.113
273.113
273.113
273.113
273.113
273.113
273.113
273.113
273.114
273.125
273.282
273.119
273.108
273.107
273.107
273.107
273.107
273.107
273.107
273.107
273.107
273.107
273.107
273.107
273.107
273.107
273.107
273.107
273.108
273.119
273.278
273.114
273.102
273.101
273.101
273.101
273.101
273.101
273.101
273.101
273.101
273.101
273.101
273.101
273.101
273.101
273.101
273.101
273.101
273.114
273.273
273.11
273.096
273.094
273.094
273.094
273.094
273.094
273.094
273.094
273.094
273.094
273.094
273.094
273.094
273.094
273.094
273.094
273.095
273.108
273.268
)
;

boundaryField
{
    leftWall
    {
        type            fixedValue;
        value           uniform 273.15;
    }
    rightWall
    {
        type            customNeumannDirichletCoupledBoundary;
        refValue        nonuniform List<scalar> 10(273.987 273.988 273.987 273.987 273.987 273.986 273.986 273.986 273.985 273.985);
        refGradient     uniform 0;
        valueFraction   uniform 1;
        source          uniform 0;
        value           nonuniform List<scalar> 10(273.987 273.988 273.987 273.987 273.987 273.986 273.986 273.986 273.985 273.985);
        kappaMethod     fluidThermo;
    }
    topWall
    {
        type            zeroGradient;
    }
    bottomWall
    {
        type            zeroGradient;
    }
    frontAndBackPlanes
    {
        type            empty;
    }
}


// ************************************************************************* //
