/*--------------------------------*- C++ -*----------------------------------*\
| =========                 |                                                 |
| \\      /  F ield         | OpenFOAM: The Open Source CFD Toolbox           |
|  \\    /   O peration     | Version:  2506                                  |
|   \\  /    A nd           | Website:  www.openfoam.com                      |
|    \\/     M anipulation  |                                                 |
\*---------------------------------------------------------------------------*/
FoamFile
{
    version     2.0;
    format      ascii;
    arch        "LSB;label=32;scalar=64";
    class       volVectorField;
    location    "142.2";
    object      U;
}
// * * * * * * * * * * * * * * * * * * * * * * * * * * * * * * * * * * * * * //

dimensions      [0 1 -1 0 0 0 0];

internalField   nonuniform List<vector> 
200
(
(0.00059664 -0.00142019 0)
(0.00286715 -0.00179101 0)
(0.00521739 -0.00130265 0)
(0.00704842 -0.000682761 0)
(0.00814065 -0.000209372 0)
(0.00865109 6.15433e-05 0)
(0.00881483 0.000158428 0)
(0.0088377 0.000132078 0)
(0.00886831 2.89045e-05 0)
(0.00900542 -0.000118684 0)
(0.0093109 -0.000295793 0)
(0.00981998 -0.000499112 0)
(0.0105476 -0.00072575 0)
(0.0114788 -0.00095554 0)
(0.0125267 -0.00112031 0)
(0.0134398 -0.00105029 0)
(0.0136777 -0.000403001 0)
(0.012388 0.00130987 0)
(0.00874416 0.00412372 0)
(0.00260406 0.00553683 0)
(0.000595428 -0.0055228 0)
(0.00375931 -0.00843782 0)
(0.00716318 -0.0074351 0)
(0.0100462 -0.00517978 0)
(0.0120576 -0.00300447 0)
(0.013281 -0.00143177 0)
(0.0139555 -0.000549606 0)
(0.0143236 -0.000251347 0)
(0.0145763 -0.000373252 0)
(0.0148397 -0.000763001 0)
(0.0151807 -0.00130401 0)
(0.0156179 -0.00190486 0)
(0.0161195 -0.0024611 0)
(0.0165864 -0.0027895 0)
(0.0168174 -0.00253475 0)
(0.0164573 -0.00106875 0)
(0.0149452 0.00249038 0)
(0.0116923 0.00873387 0)
(0.00671558 0.0161224 0)
(0.00112812 0.015947 0)
(0.000543674 -0.00956615 0)
(0.00343977 -0.0151258 0)
(0.00648866 -0.0138269 0)
(0.00907994 -0.0101468 0)
(0.0109263 -0.0064199 0)
(0.0121062 -0.00359372 0)
(0.0128176 -0.00186451 0)
(0.0132488 -0.00108352 0)
(0.0135366 -0.000989003 0)
(0.0137639 -0.00132184 0)
(0.0139667 -0.00186327 0)
(0.0141408 -0.00241964 0)
(0.0142375 -0.00276438 0)
(0.0141484 -0.00254662 0)
(0.0136831 -0.00119096 0)
(0.0125437 0.00212864 0)
(0.0104716 0.00820809 0)
(0.00733925 0.0170504 0)
(0.00358318 0.0254186 0)
(0.000400147 0.021428 0)
(0.000462741 -0.0130839 0)
(0.00277897 -0.0206681 0)
(0.0050224 -0.0188951 0)
(0.00679541 -0.0139325 0)
(0.00796821 -0.0089483 0)
(0.00867344 -0.00518064 0)
(0.00908987 -0.0028458 0)
(0.0093489 -0.00171338 0)
(0.00952258 -0.00142312 0)
(0.00964083 -0.00163249 0)
(0.00970856 -0.0020568 0)
(0.00971226 -0.00243797 0)
(0.00961367 -0.00246471 0)
(0.00933394 -0.001669 0)
(0.00872872 0.000648126 0)
(0.00764782 0.00531273 0)
(0.0059697 0.0129602 0)
(0.00374639 0.0229992 0)
(0.0014425 0.0309772 0)
(3.69168e-05 0.0237889 0)
(0.000369495 -0.0158345 0)
(0.00195831 -0.0245327 0)
(0.00319389 -0.0220101 0)
(0.00395272 -0.0159414 0)
(0.00430073 -0.0100981 0)
(0.00442529 -0.00582245 0)
(0.00447219 -0.00323239 0)
(0.00450541 -0.00197167 0)
(0.00453345 -0.00159306 0)
(0.00454452 -0.00171248 0)
(0.00452617 -0.00202773 0)
(0.00446631 -0.00225825 0)
(0.00434118 -0.00204294 0)
(0.00409957 -0.000835907 0)
(0.00364638 0.00212621 0)
(0.00291329 0.00762913 0)
(0.00188522 0.0160953 0)
(0.000727234 0.0264105 0)
(-0.000162047 0.0334353 0)
(-0.0001829 0.0241449 0)
(0.000261998 -0.0176896 0)
(0.00095991 -0.0264511 0)
(0.00101461 -0.0229466 0)
(0.000662209 -0.0160619 0)
(0.000167998 -0.0098418 0)
(-0.000269634 -0.00551078 0)
(-0.000582218 -0.00300601 0)
(-0.000791625 -0.00183083 0)
(-0.000936757 -0.00149096 0)
(-0.00105007 -0.00160819 0)
(-0.00115041 -0.00189581 0)
(-0.00125129 -0.00206769 0)
(-0.00137315 -0.00172749 0)
(-0.00154708 -0.00028371 0)
(-0.00180367 0.00303 0)
(-0.00210664 0.00889423 0)
(-0.00233781 0.017454 0)
(-0.00225834 0.0272172 0)
(-0.00163485 0.0329985 0)
(-0.000363177 0.0228896 0)
(0.000119732 -0.0183394 0)
(-0.000388295 -0.0259821 0)
(-0.00176475 -0.0213697 0)
(-0.00331462 -0.0141631 0)
(-0.00464723 -0.00819359 0)
(-0.00563649 -0.00429416 0)
(-0.00632118 -0.00216179 0)
(-0.00679189 -0.00124068 0)
(-0.00712613 -0.0010572 0)
(-0.00737589 -0.00126864 0)
(-0.00757331 -0.00161079 0)
(-0.00773959 -0.00179928 0)
(-0.00788636 -0.00143769 0)
(-0.00799972 2.98484e-05 0)
(-0.00799859 0.00326287 0)
(-0.00771857 0.0087866 0)
(-0.00692626 0.0165566 0)
(-0.00539536 0.0250439 0)
(-0.00316225 0.0295906 0)
(-0.000567887 0.0200464 0)
(-0.000222537 -0.017153 0)
(-0.00249315 -0.0223367 0)
(-0.00550816 -0.01691 0)
(-0.00826978 -0.0101757 0)
(-0.0103372 -0.00515289 0)
(-0.0117304 -0.00215652 0)
(-0.0126282 -0.00070138 0)
(-0.0132078 -0.000232338 0)
(-0.0135987 -0.000334529 0)
(-0.0138954 -0.000720647 0)
(-0.0141492 -0.00116997 0)
(-0.0143785 -0.00144362 0)
(-0.0145577 -0.00121769 0)
(-0.0145914 -6.17037e-05 0)
(-0.014279 0.00251332 0)
(-0.0133521 0.00690062 0)
(-0.0114866 0.0130135 0)
(-0.00849786 0.0196048 0)
(-0.00468179 0.0230499 0)
(-0.00078141 0.0155626 0)
(-0.000879028 -0.0130051 0)
(-0.00551946 -0.0146828 0)
(-0.0100834 -0.00946202 0)
(-0.0134836 -0.00444263 0)
(-0.0155146 -0.00126942 0)
(-0.0165619 0.000274085 0)
(-0.0170539 0.000766922 0)
(-0.0172811 0.000679357 0)
(-0.0174279 0.000304548 0)
(-0.0175933 -0.000189017 0)
(-0.0178248 -0.000677958 0)
(-0.0181197 -0.00102995 0)
(-0.018407 -0.00106419 0)
(-0.0185295 -0.000534212 0)
(-0.0182095 0.000859464 0)
(-0.0170566 0.00340758 0)
(-0.0146537 0.00711424 0)
(-0.0107855 0.0112729 0)
(-0.00587768 0.0137071 0)
(-0.000984972 0.00956478 0)
(-0.00209182 -0.00445869 0)
(-0.00734472 -0.00379104 0)
(-0.0109918 -0.00166009 0)
(-0.0128153 -0.000197786 0)
(-0.0133224 0.000467655 0)
(-0.0131713 0.000633583 0)
(-0.0127918 0.000565849 0)
(-0.0124272 0.000410342 0)
(-0.0121918 0.000230876 0)
(-0.0121305 4.75145e-05 0)
(-0.0122536 -0.000130358 0)
(-0.0125388 -0.000289312 0)
(-0.0129271 -0.000404404 0)
(-0.013295 -0.000429256 0)
(-0.0134289 -0.000284688 0)
(-0.0130109 0.00015315 0)
(-0.011627 0.000980481 0)
(-0.00895314 0.00214032 0)
(-0.00520537 0.00314251 0)
(-0.00122629 0.00263169 0)
)
;

boundaryField
{
    leftWall
    {
        type            fixedValue;
        value           uniform (0 0 0);
    }
    rightWall
    {
        type            fixedValue;
        value           uniform (0 0 0);
    }
    topWall
    {
        type            fixedValue;
        value           uniform (0 0 0);
    }
    bottomWall
    {
        type            fixedValue;
        value           uniform (0 0 0);
    }
    frontAndBackPlanes
    {
        type            empty;
    }
}


// ************************************************************************* //
