/*--------------------------------*- C++ -*----------------------------------*\
| =========                 |                                                 |
| \\      /  F ield         | OpenFOAM: The Open Source CFD Toolbox           |
|  \\    /   O peration     | Version:  2506                                  |
|   \\  /    A nd           | Website:  www.openfoam.com                      |
|    \\/     M anipulation  |                                                 |
\*---------------------------------------------------------------------------*/
FoamFile
{
    version     2.0;
    format      ascii;
    arch        "LSB;label=32;scalar=64";
    class       volVectorField;
    location    "54.4";
    object      U;
}
// * * * * * * * * * * * * * * * * * * * * * * * * * * * * * * * * * * * * * //

dimensions      [0 1 -1 0 0 0 0];

internalField   nonuniform List<vector> 
200
(
(-7.25207e-05 -0.000335351 0)
(0.000482637 -0.000514988 0)
(0.00144438 -0.000486916 0)
(0.00243549 -0.000411471 0)
(0.00328356 -0.000326946 0)
(0.00400214 -0.000263219 0)
(0.00462809 -0.000239111 0)
(0.00521752 -0.000260856 0)
(0.00583416 -0.000329358 0)
(0.00654128 -0.000445207 0)
(0.00739769 -0.000609959 0)
(0.00845359 -0.000823539 0)
(0.00974019 -0.00107659 0)
(0.0112469 -0.00133535 0)
(0.0128741 -0.00151612 0)
(0.0143345 -0.00143811 0)
(0.0149941 -0.00073372 0)
(0.0138962 0.00119716 0)
(0.0100415 0.00450029 0)
(0.00304716 0.00643599 0)
(0.000185405 -0.00162225 0)
(0.00148909 -0.00311162 0)
(0.00324169 -0.00349547 0)
(0.00504656 -0.00329877 0)
(0.00666558 -0.00288116 0)
(0.0080479 -0.00248484 0)
(0.00923354 -0.00223834 0)
(0.0102958 -0.00219213 0)
(0.0113128 -0.00235286 0)
(0.0123525 -0.00270467 0)
(0.0134635 -0.00321471 0)
(0.0146635 -0.00382165 0)
(0.0159208 -0.0044042 0)
(0.0171215 -0.00472721 0)
(0.0180223 -0.00436571 0)
(0.0181988 -0.00261787 0)
(0.0169954 0.00152716 0)
(0.0136408 0.00887122 0)
(0.00804757 0.0178824 0)
(0.00140369 0.0186298 0)
(0.000276479 -0.00349963 0)
(0.00197441 -0.00675032 0)
(0.0040651 -0.00758228 0)
(0.00613275 -0.00712666 0)
(0.00791711 -0.00620027 0)
(0.00937693 -0.00529403 0)
(0.0105687 -0.00464898 0)
(0.0115727 -0.00434676 0)
(0.0124619 -0.00438011 0)
(0.0132898 -0.00469416 0)
(0.0140849 -0.00519726 0)
(0.0148428 -0.00574101 0)
(0.0155112 -0.00606906 0)
(0.0159628 -0.00573959 0)
(0.0159613 -0.00404402 0)
(0.0151281 1.43634e-05 0)
(0.0130267 0.00745253 0)
(0.00944974 0.0183196 0)
(0.00484741 0.0290576 0)
(0.000616681 0.0256323 0)
(0.00031663 -0.00578762 0)
(0.00215067 -0.0108722 0)
(0.00424294 -0.0119215 0)
(0.00617287 -0.0109513 0)
(0.00771207 -0.00931253 0)
(0.0088651 -0.00775566 0)
(0.00972136 -0.00661181 0)
(0.0103742 -0.00596447 0)
(0.0108941 -0.00577078 0)
(0.0113254 -0.00592824 0)
(0.0116891 -0.00629122 0)
(0.0119819 -0.00664099 0)
(0.0121662 -0.00661428 0)
(0.0121483 -0.00560784 0)
(0.0117524 -0.00271165 0)
(0.0106886 0.00320667 0)
(0.00873586 0.012936 0)
(0.00586504 0.0258097 0)
(0.00261229 0.0366513 0)
(0.000218496 0.029367 0)
(0.00033346 -0.00817074 0)
(0.00206824 -0.0148454 0)
(0.00383553 -0.0157733 0)
(0.00528507 -0.0140317 0)
(0.00627836 -0.0115502 0)
(0.00689026 -0.00931061 0)
(0.00724555 -0.00768484 0)
(0.0074442 -0.00671755 0)
(0.00754828 -0.00631003 0)
(0.00759165 -0.0063126 0)
(0.00759085 -0.00654152 0)
(0.00754764 -0.00673306 0)
(0.00744069 -0.00644913 0)
(0.00720985 -0.00496621 0)
(0.00673881 -0.00122723 0)
(0.00582762 0.00596019 0)
(0.0043934 0.017128 0)
(0.00253375 0.0309237 0)
(0.000734708 0.0410768 0)
(-7.72562e-05 0.0308755 0)
(0.000310142 -0.0103612 0)
(0.00163345 -0.0180673 0)
(0.00268138 -0.0184601 0)
(0.00328344 -0.0157739 0)
(0.00345865 -0.0124743 0)
(0.00336049 -0.00968115 0)
(0.00312778 -0.00772866 0)
(0.00284285 -0.0065808 0)
(0.0025438 -0.00607439 0)
(0.00224683 -0.00602299 0)
(0.00195833 -0.00621951 0)
(0.00167344 -0.00636742 0)
(0.00136778 -0.00596868 0)
(0.000994498 -0.00421332 0)
(0.000492548 3.41367e-05 0)
(-0.000168909 0.00792586 0)
(-0.00085766 0.0196645 0)
(-0.00132977 0.0333037 0)
(-0.00126783 0.0421569 0)
(-0.00034852 0.030323 0)
(0.000211781 -0.0118907 0)
(0.000632767 -0.0196474 0)
(0.000431682 -0.0190932 0)
(-0.000233901 -0.0154886 0)
(-0.00112684 -0.0116327 0)
(-0.00205311 -0.00861406 0)
(-0.00291914 -0.0066283 0)
(-0.00369767 -0.0055296 0)
(-0.00439293 -0.00509862 0)
(-0.00501796 -0.00512556 0)
(-0.00558855 -0.00538367 0)
(-0.0061258 -0.00554468 0)
(-0.00665369 -0.0050768 0)
(-0.00717629 -0.00317878 0)
(-0.0076305 0.00115455 0)
(-0.00777819 0.00876751 0)
(-0.00729426 0.0196593 0)
(-0.0058875 0.0318415 0)
(-0.00357677 0.0391179 0)
(-0.000679159 0.02741 0)
(-3.75745e-05 -0.0119237 0)
(-0.00122501 -0.0182609 0)
(-0.00325126 -0.0165237 0)
(-0.00548422 -0.0124846 0)
(-0.00751515 -0.00872395 0)
(-0.00921583 -0.00602553 0)
(-0.0106075 -0.00439335 0)
(-0.011761 -0.00359911 0)
(-0.0127505 -0.00340398 0)
(-0.0136386 -0.00360058 0)
(-0.014472 -0.00396892 0)
(-0.0152747 -0.00420151 0)
(-0.0160265 -0.00383477 0)
(-0.0166209 -0.00222692 0)
(-0.0168018 0.00136023 0)
(-0.0161371 0.00751074 0)
(-0.0141887 0.016199 0)
(-0.0106926 0.0258132 0)
(-0.00600888 0.0314216 0)
(-0.00103915 0.0218963 0)
(-0.000565446 -0.00934415 0)
(-0.00396844 -0.0127347 0)
(-0.00789192 -0.0103026 0)
(-0.0113605 -0.00686741 0)
(-0.0139732 -0.00414001 0)
(-0.01583 -0.00242581 0)
(-0.0171657 -0.00155316 0)
(-0.0181958 -0.00127274 0)
(-0.0190841 -0.00138237 0)
(-0.0199451 -0.00172986 0)
(-0.0208467 -0.00216983 0)
(-0.0217987 -0.0025111 0)
(-0.0227232 -0.00247597 0)
(-0.0234162 -0.0016883 0)
(-0.0235028 0.000295472 0)
(-0.0223995 0.00389541 0)
(-0.0195345 0.00921295 0)
(-0.0145839 0.0153411 0)
(-0.00808209 0.0192552 0)
(-0.00139294 0.0138494 0)
(-0.00144775 -0.00313165 0)
(-0.00553543 -0.00336159 0)
(-0.00913445 -0.00212916 0)
(-0.0116315 -0.00100575 0)
(-0.0130578 -0.000316664 0)
(-0.0137947 1.59657e-05 0)
(-0.0141812 0.000121449 0)
(-0.0144423 9.46636e-05 0)
(-0.0147187 -9.14348e-06 0)
(-0.0151006 -0.000161362 0)
(-0.0156402 -0.000343778 0)
(-0.0163468 -0.000532207 0)
(-0.0171655 -0.00068262 0)
(-0.0179439 -0.000720349 0)
(-0.0183883 -0.00052683 0)
(-0.0180572 7.95206e-05 0)
(-0.0163531 0.00128479 0)
(-0.0127746 0.00303265 0)
(-0.00756257 0.00460642 0)
(-0.0018335 0.00395359 0)
)
;

boundaryField
{
    leftWall
    {
        type            fixedValue;
        value           uniform (0 0 0);
    }
    rightWall
    {
        type            fixedValue;
        value           uniform (0 0 0);
    }
    topWall
    {
        type            fixedValue;
        value           uniform (0 0 0);
    }
    bottomWall
    {
        type            fixedValue;
        value           uniform (0 0 0);
    }
    frontAndBackPlanes
    {
        type            empty;
    }
}


// ************************************************************************* //
