/*--------------------------------*- C++ -*----------------------------------*\
| =========                 |                                                 |
| \\      /  F ield         | OpenFOAM: The Open Source CFD Toolbox           |
|  \\    /   O peration     | Version:  2506                                  |
|   \\  /    A nd           | Website:  www.openfoam.com                      |
|    \\/     M anipulation  |                                                 |
\*---------------------------------------------------------------------------*/
FoamFile
{
    version     2.0;
    format      ascii;
    arch        "LSB;label=32;scalar=64";
    class       volScalarField;
    location    "5.4";
    object      T;
}
// * * * * * * * * * * * * * * * * * * * * * * * * * * * * * * * * * * * * * //

dimensions      [0 0 0 1 0 0 0];

internalField   nonuniform List<scalar> 
200
(
273.15
273.15
273.15
273.149
273.149
273.149
273.149
273.149
273.149
273.149
273.149
273.149
273.149
273.149
273.15
273.151
273.159
273.194
273.33
273.73
273.148
273.146
273.145
273.145
273.145
273.145
273.145
273.145
273.145
273.145
273.145
273.145
273.145
273.145
273.145
273.147
273.155
273.193
273.339
273.754
273.147
273.142
273.14
273.139
273.139
273.139
273.139
273.139
273.139
273.139
273.139
273.139
273.139
273.139
273.139
273.141
273.15
273.193
273.351
273.773
273.145
273.137
273.134
273.133
273.132
273.132
273.132
273.132
273.132
273.132
273.132
273.132
273.132
273.132
273.133
273.135
273.145
273.192
273.357
273.783
273.143
273.132
273.128
273.127
273.126
273.126
273.126
273.126
273.126
273.126
273.126
273.126
273.126
273.126
273.126
273.129
273.14
273.189
273.359
273.788
273.141
273.128
273.122
273.12
273.12
273.12
273.12
273.12
273.12
273.12
273.12
273.12
273.12
273.12
273.12
273.123
273.134
273.186
273.36
273.79
273.139
273.123
273.116
273.114
273.114
273.113
273.113
273.113
273.113
273.113
273.113
273.113
273.114
273.114
273.114
273.117
273.131
273.186
273.362
273.79
273.137
273.118
273.11
273.108
273.107
273.107
273.107
273.107
273.107
273.107
273.107
273.107
273.107
273.107
273.109
273.113
273.132
273.194
273.371
273.79
273.135
273.114
273.105
273.102
273.101
273.101
273.101
273.101
273.101
273.101
273.101
273.101
273.101
273.102
273.104
273.112
273.14
273.216
273.397
273.794
273.133
273.11
273.1
273.096
273.096
273.095
273.095
273.095
273.095
273.095
273.095
273.095
273.096
273.096
273.1
273.112
273.152
273.246
273.438
273.802
)
;

boundaryField
{
    leftWall
    {
        type            fixedValue;
        value           uniform 273.15;
    }
    rightWall
    {
        type            customNeumannDirichletCoupledBoundary;
        refValue        nonuniform List<scalar> 10(274.119 274.12 274.121 274.122 274.122 274.122 274.123 274.123 274.123 274.123);
        refGradient     uniform 0;
        valueFraction   uniform 1;
        source          uniform 0;
        value           nonuniform List<scalar> 10(274.119 274.12 274.121 274.122 274.122 274.122 274.123 274.123 274.123 274.123);
        kappaMethod     fluidThermo;
    }
    topWall
    {
        type            zeroGradient;
    }
    bottomWall
    {
        type            zeroGradient;
    }
    frontAndBackPlanes
    {
        type            empty;
    }
}


// ************************************************************************* //
