/*--------------------------------*- C++ -*----------------------------------*\
| =========                 |                                                 |
| \\      /  F ield         | OpenFOAM: The Open Source CFD Toolbox           |
|  \\    /   O peration     | Version:  2506                                  |
|   \\  /    A nd           | Website:  www.openfoam.com                      |
|    \\/     M anipulation  |                                                 |
\*---------------------------------------------------------------------------*/
FoamFile
{
    version     2.0;
    format      ascii;
    arch        "LSB;label=32;scalar=64";
    class       volScalarField;
    location    "37";
    object      p_rgh;
}
// * * * * * * * * * * * * * * * * * * * * * * * * * * * * * * * * * * * * * //

dimensions      [1 -1 -2 0 0 0 0];

internalField   nonuniform List<scalar> 
200
(
100000
100000
100000
100000
100000
100000
100000
100000
100000
100000
100000
100000
99999.9
99999.9
99999.8
99999.7
99999.5
99999.2
99998.9
99998.2
100000
100000
100000
100000
100000
100000
100000
100000
100000
100000
100000
100000
99999.9
99999.9
99999.8
99999.8
99999.6
99999.3
99998.6
99997
100000
100000
100000
100000
100000
100000
100000
100000
100000
100000
100000
99999.9
99999.9
99999.9
99999.9
99999.8
99999.7
99999.2
99998
99995.3
100000
100000
100000
100000
100000
99999.9
99999.9
99999.8
99999.8
99999.8
99999.8
99999.8
99999.9
99999.9
99999.9
99999.9
99999.6
99998.9
99997
99993.4
100000
100000
100000
99999.9
99999.7
99999.6
99999.5
99999.5
99999.5
99999.5
99999.6
99999.6
99999.7
99999.8
99999.9
99999.8
99999.4
99998.3
99995.8
99991.2
100000
100000
99999.9
99999.5
99999.3
99999.1
99999
99998.9
99998.9
99999
99999.1
99999.2
99999.4
99999.6
99999.6
99999.5
99998.9
99997.4
99994.3
99989
100001
100000
99999.6
99999
99998.5
99998.2
99998
99998
99998
99998.1
99998.2
99998.3
99998.5
99998.6
99998.7
99998.4
99997.6
99995.9
99992.4
99986.9
100001
100000
99999.1
99998.1
99997.4
99997
99996.7
99996.5
99996.4
99996.3
99996.3
99996.3
99996.4
99996.4
99996.4
99996.1
99995.3
99993.5
99990.2
99985
100001
100000
99998.5
99997.1
99996.1
99995.3
99994.7
99994.3
99993.9
99993.6
99993.3
99993.1
99992.9
99992.8
99992.7
99992.4
99991.7
99990.3
99987.6
99983.1
100002
100000
99998.3
99996.7
99995.4
99994.3
99993.4
99992.6
99992
99991.4
99990.9
99990.4
99989.9
99989.5
99989
99988.6
99987.9
99986.8
99984.8
99981.6
)
;

boundaryField
{
    leftWall
    {
        type            fixedFluxPressure;
        gradient        nonuniform List<scalar> 10(-0.0197684 -0.0146347 0.135743 0.622414 1.74103 3.89048 7.55086 13.4724 21.5057 26.4045);
        value           nonuniform List<scalar> 10(100000 100000 100000 100000 100000 100000 100001 100001 100002 100002);
    }
    rightWall
    {
        type            fixedFluxPressure;
        gradient        nonuniform List<scalar> 10(-17.7129 -50.1741 -76.978 -98.6624 -114.647 -125.049 -131.17 -128.929 -113.516 -86.3224);
        value           nonuniform List<scalar> 10(99997.8 99995.8 99993.4 99990.9 99988.4 99985.9 99983.7 99981.7 99980.3 99979.4);
    }
    topWall
    {
        type            fixedFluxPressure;
        gradient        uniform 0;
        value           nonuniform List<scalar> 
20
(
100000
100000
100000
100000
100000
100000
100000
100000
100000
100000
100000
100000
99999.9
99999.9
99999.8
99999.7
99999.5
99999.2
99998.9
99998.2
)
;
    }
    bottomWall
    {
        type            fixedFluxPressure;
        gradient        uniform 0;
        value           nonuniform List<scalar> 
20
(
100002
100000
99998.3
99996.7
99995.4
99994.3
99993.4
99992.6
99992
99991.4
99990.9
99990.4
99989.9
99989.5
99989
99988.6
99987.9
99986.8
99984.8
99981.6
)
;
    }
    frontAndBackPlanes
    {
        type            empty;
    }
}


// ************************************************************************* //
