/*--------------------------------*- C++ -*----------------------------------*\
| =========                 |                                                 |
| \\      /  F ield         | OpenFOAM: The Open Source CFD Toolbox           |
|  \\    /   O peration     | Version:  2506                                  |
|   \\  /    A nd           | Website:  www.openfoam.com                      |
|    \\/     M anipulation  |                                                 |
\*---------------------------------------------------------------------------*/
FoamFile
{
    version     2.0;
    format      ascii;
    arch        "LSB;label=32;scalar=64";
    class       volScalarField;
    location    "12.6";
    object      T;
}
// * * * * * * * * * * * * * * * * * * * * * * * * * * * * * * * * * * * * * //

dimensions      [0 0 0 1 0 0 0];

internalField   nonuniform List<scalar> 
200
(
273.15
273.149
273.148
273.148
273.148
273.148
273.148
273.148
273.148
273.148
273.148
273.148
273.148
273.148
273.15
273.157
273.176
273.233
273.395
273.784
273.149
273.147
273.146
273.145
273.144
273.144
273.144
273.144
273.144
273.144
273.144
273.144
273.144
273.145
273.146
273.152
273.171
273.231
273.404
273.807
273.148
273.144
273.141
273.14
273.139
273.139
273.138
273.138
273.138
273.138
273.138
273.138
273.138
273.139
273.142
273.149
273.172
273.243
273.431
273.836
273.147
273.141
273.137
273.134
273.133
273.133
273.132
273.132
273.132
273.132
273.132
273.132
273.133
273.134
273.137
273.147
273.176
273.258
273.46
273.861
273.146
273.138
273.132
273.129
273.127
273.126
273.126
273.126
273.126
273.126
273.126
273.126
273.127
273.129
273.133
273.146
273.183
273.277
273.491
273.883
273.144
273.134
273.127
273.123
273.121
273.12
273.12
273.12
273.12
273.12
273.121
273.122
273.123
273.126
273.133
273.15
273.196
273.303
273.526
273.905
273.143
273.131
273.122
273.117
273.115
273.114
273.114
273.114
273.114
273.115
273.117
273.12
273.125
273.134
273.147
273.174
273.232
273.349
273.568
273.921
273.142
273.127
273.117
273.112
273.109
273.108
273.108
273.108
273.109
273.111
273.116
273.126
273.142
273.165
273.194
273.237
273.305
273.421
273.621
273.937
273.141
273.124
273.113
273.107
273.104
273.103
273.103
273.103
273.105
273.11
273.121
273.143
273.178
273.226
273.282
273.344
273.42
273.526
273.693
273.959
273.14
273.123
273.11
273.103
273.099
273.098
273.098
273.098
273.1
273.105
273.119
273.148
273.196
273.264
273.345
273.433
273.525
273.633
273.774
273.985
)
;

boundaryField
{
    leftWall
    {
        type            fixedValue;
        value           uniform 273.15;
    }
    rightWall
    {
        type            customNeumannDirichletCoupledBoundary;
        refValue        nonuniform List<scalar> 10(274.124 274.125 274.127 274.129 274.13 274.132 274.133 274.134 274.135 274.136);
        refGradient     uniform 0;
        valueFraction   uniform 1;
        source          uniform 0;
        value           nonuniform List<scalar> 10(274.124 274.125 274.127 274.129 274.13 274.132 274.133 274.134 274.135 274.136);
        kappaMethod     fluidThermo;
    }
    topWall
    {
        type            zeroGradient;
    }
    bottomWall
    {
        type            zeroGradient;
    }
    frontAndBackPlanes
    {
        type            empty;
    }
}


// ************************************************************************* //
