/*--------------------------------*- C++ -*----------------------------------*\
| =========                 |                                                 |
| \\      /  F ield         | OpenFOAM: The Open Source CFD Toolbox           |
|  \\    /   O peration     | Version:  2506                                  |
|   \\  /    A nd           | Website:  www.openfoam.com                      |
|    \\/     M anipulation  |                                                 |
\*---------------------------------------------------------------------------*/
FoamFile
{
    version     2.0;
    format      ascii;
    arch        "LSB;label=32;scalar=64";
    class       volVectorField;
    location    "12.6";
    object      U;
}
// * * * * * * * * * * * * * * * * * * * * * * * * * * * * * * * * * * * * * //

dimensions      [0 1 -1 0 0 0 0];

internalField   nonuniform List<vector> 
200
(
(-0.000253453 -0.000121735 0)
(-0.000292614 -0.000191169 0)
(3.25276e-05 -0.000216554 0)
(0.000544665 -0.000285702 0)
(0.00117569 -0.000361099 0)
(0.00195517 -0.000434252 0)
(0.00287857 -0.000510662 0)
(0.00394331 -0.000595318 0)
(0.00515132 -0.000691633 0)
(0.00650441 -0.000801555 0)
(0.00799872 -0.00092513 0)
(0.00961888 -0.00105923 0)
(0.0113305 -0.00119452 0)
(0.0130665 -0.00130791 0)
(0.0146946 -0.00134238 0)
(0.0159386 -0.00115526 0)
(0.0162488 -0.000410566 0)
(0.0147476 0.00147866 0)
(0.0105035 0.00472744 0)
(0.00315163 0.00664579 0)
(-2.29089e-05 -0.000283989 0)
(0.000142771 -0.000841457 0)
(0.000669258 -0.00141681 0)
(0.00149592 -0.00200564 0)
(0.00259588 -0.00255731 0)
(0.00394624 -0.0030741 0)
(0.00552513 -0.0035718 0)
(0.00731345 -0.00406219 0)
(0.00929042 -0.00454476 0)
(0.0114245 -0.00500182 0)
(0.0136622 -0.00539383 0)
(0.0159144 -0.00565258 0)
(0.0180398 -0.00566763 0)
(0.0198253 -0.00525747 0)
(0.0209636 -0.00411089 0)
(0.0210226 -0.00168479 0)
(0.0193622 0.00289981 0)
(0.0153196 0.01037 0)
(0.00894589 0.0192845 0)
(0.00155941 0.0196375 0)
(1.59353e-05 -0.000451581 0)
(0.000270592 -0.00163142 0)
(0.000849095 -0.0028915 0)
(0.00173467 -0.00409742 0)
(0.00289318 -0.00520198 0)
(0.00429472 -0.00621224 0)
(0.00591383 -0.00714975 0)
(0.00772588 -0.00802289 0)
(0.00969947 -0.00881035 0)
(0.0117856 -0.00945066 0)
(0.0139049 -0.00983354 0)
(0.0159333 -0.00978989 0)
(0.0176891 -0.0090752 0)
(0.0189227 -0.00733852 0)
(0.0193105 -0.00407058 0)
(0.0184321 0.00144869 0)
(0.0158936 0.00997306 0)
(0.0115461 0.0214371 0)
(0.00598416 0.0322177 0)
(0.000805675 0.0278068 0)
(9.34352e-06 -0.000708693 0)
(0.000216877 -0.00247786 0)
(0.000685179 -0.00431807 0)
(0.00140454 -0.00606031 0)
(0.00235018 -0.00764653 0)
(0.00349894 -0.00908696 0)
(0.00483236 -0.0104071 0)
(0.00633314 -0.0116077 0)
(0.00797644 -0.0126403 0)
(0.00971776 -0.0133912 0)
(0.011479 -0.0136711 0)
(0.013135 -0.0132071 0)
(0.0145051 -0.0116337 0)
(0.0153542 -0.00847746 0)
(0.0154053 -0.00313503 0)
(0.0143323 0.00510524 0)
(0.0119328 0.016707 0)
(0.00823358 0.0307791 0)
(0.00391177 0.0418879 0)
(0.000432766 0.0329138 0)
(-5.11855e-06 -0.000848533 0)
(6.38561e-05 -0.00301084 0)
(0.000292696 -0.00527858 0)
(0.000686442 -0.00743148 0)
(0.00123931 -0.00939455 0)
(0.00194303 -0.0111825 0)
(0.00279495 -0.0128285 0)
(0.00379659 -0.0143286 0)
(0.00494398 -0.0156073 0)
(0.0062139 -0.0164965 0)
(0.00754818 -0.0167235 0)
(0.00883889 -0.0159104 0)
(0.0099226 -0.0135843 0)
(0.010592 -0.0091894 0)
(0.0106233 -0.00209877 0)
(0.00976406 0.00830495 0)
(0.00792393 0.0221705 0)
(0.00521417 0.037867 0)
(0.00223838 0.0486322 0)
(0.000178514 0.0359779 0)
(-2.58451e-05 -0.000791601 0)
(-0.000148863 -0.00306688 0)
(-0.000244095 -0.00554848 0)
(-0.000285147 -0.00794066 0)
(-0.000257154 -0.0101442 0)
(-0.000151517 -0.0121809 0)
(4.9182e-05 -0.0140991 0)
(0.000372098 -0.0158984 0)
(0.000842761 -0.0174815 0)
(0.00147071 -0.0186267 0)
(0.00223146 -0.018972 0)
(0.00304936 -0.0180269 0)
(0.00379343 -0.0152122 0)
(0.00429749 -0.00991111 0)
(0.00440264 -0.00151281 0)
(0.00392784 0.0104693 0)
(0.00291451 0.0258499 0)
(0.00156358 0.0423612 0)
(0.000305814 0.0523994 0)
(-0.000116716 0.0371969 0)
(-5.02124e-05 -0.000496223 0)
(-0.000370999 -0.00255167 0)
(-0.000810036 -0.00498657 0)
(-0.00133621 -0.00739391 0)
(-0.00192295 -0.00964324 0)
(-0.00254968 -0.0117689 0)
(-0.00318353 -0.0138428 0)
(-0.00377631 -0.0158807 0)
(-0.00427256 -0.0177785 0)
(-0.0046247 -0.0192699 0)
(-0.0048119 -0.0199085 0)
(-0.0048545 -0.0190938 0)
(-0.00481191 -0.0161482 0)
(-0.00475476 -0.0104154 0)
(-0.00471067 -0.00134612 0)
(-0.00467182 0.0113234 0)
(-0.00441493 0.0270183 0)
(-0.00367193 0.0430905 0)
(-0.00234081 0.0519702 0)
(-0.00047827 0.0360315 0)
(-5.83726e-05 -4.40187e-06 0)
(-0.000476591 -0.00151791 0)
(-0.00116027 -0.00359214 0)
(-0.00210694 -0.0056964 0)
(-0.00329879 -0.00767803 0)
(-0.00471554 -0.0095954 0)
(-0.00632381 -0.0115564 0)
(-0.00807421 -0.0136063 0)
(-0.00990256 -0.0156519 0)
(-0.0117345 -0.0174071 0)
(-0.0134917 -0.0183733 0)
(-0.0150923 -0.01789 0)
(-0.0164364 -0.0152604 0)
(-0.0173765 -0.00989595 0)
(-0.0176715 -0.00142252 0)
(-0.0169221 0.0101586 0)
(-0.0147679 0.0241195 0)
(-0.0110095 0.0380636 0)
(-0.00611013 0.0455128 0)
(-0.00105526 0.0313905 0)
(-1.02506e-05 0.000452147 0)
(-0.000239197 -0.000349237 0)
(-0.000865709 -0.00173793 0)
(-0.00195184 -0.00315098 0)
(-0.00348491 -0.00446101 0)
(-0.00544399 -0.00575283 0)
(-0.00781918 -0.00715758 0)
(-0.0106091 -0.00874964 0)
(-0.0138017 -0.0104762 0)
(-0.017345 -0.0121012 0)
(-0.0211141 -0.0131865 0)
(-0.0248783 -0.0131608 0)
(-0.0282803 -0.011476 0)
(-0.0308352 -0.00775965 0)
(-0.0319367 -0.00186163 0)
(-0.0307399 0.00616211 0)
(-0.0267027 0.0158531 0)
(-0.0197228 0.0256564 0)
(-0.0107835 0.0312602 0)
(-0.00184845 0.0221412 0)
(0.000136803 0.00031113 0)
(0.000291449 0.000149454 0)
(5.54691e-05 -0.000200983 0)
(-0.000631097 -0.000525772 0)
(-0.00173545 -0.000798679 0)
(-0.00322175 -0.00106541 0)
(-0.00510887 -0.00138133 0)
(-0.00746359 -0.00178435 0)
(-0.0103698 -0.00227625 0)
(-0.0138727 -0.00280204 0)
(-0.0179033 -0.00323722 0)
(-0.0222115 -0.00341069 0)
(-0.0263493 -0.00316893 0)
(-0.029716 -0.00243041 0)
(-0.0316254 -0.00116267 0)
(-0.0313536 0.000720306 0)
(-0.0281984 0.00335068 0)
(-0.0217629 0.00649268 0)
(-0.0127819 0.0089024 0)
(-0.00321471 0.00717653 0)
)
;

boundaryField
{
    leftWall
    {
        type            fixedValue;
        value           uniform (0 0 0);
    }
    rightWall
    {
        type            fixedValue;
        value           uniform (0 0 0);
    }
    topWall
    {
        type            fixedValue;
        value           uniform (0 0 0);
    }
    bottomWall
    {
        type            fixedValue;
        value           uniform (0 0 0);
    }
    frontAndBackPlanes
    {
        type            empty;
    }
}


// ************************************************************************* //
