/*--------------------------------*- C++ -*----------------------------------*\
| =========                 |                                                 |
| \\      /  F ield         | OpenFOAM: The Open Source CFD Toolbox           |
|  \\    /   O peration     | Version:  2506                                  |
|   \\  /    A nd           | Website:  www.openfoam.com                      |
|    \\/     M anipulation  |                                                 |
\*---------------------------------------------------------------------------*/
FoamFile
{
    version     2.0;
    format      ascii;
    arch        "LSB;label=32;scalar=64";
    class       volScalarField;
    location    "84";
    object      T;
}
// * * * * * * * * * * * * * * * * * * * * * * * * * * * * * * * * * * * * * //

dimensions      [0 0 0 1 0 0 0];

internalField   nonuniform List<scalar> 
200
(
273.157
273.171
273.181
273.188
273.192
273.195
273.197
273.198
273.199
273.201
273.203
273.205
273.207
273.21
273.214
273.223
273.245
273.308
273.468
273.827
273.164
273.19
273.208
273.22
273.226
273.229
273.23
273.23
273.231
273.232
273.234
273.235
273.237
273.238
273.24
273.244
273.263
273.324
273.491
273.855
273.174
273.218
273.25
273.269
273.278
273.282
273.283
273.282
273.281
273.281
273.281
273.281
273.281
273.279
273.277
273.279
273.296
273.361
273.534
273.889
273.186
273.25
273.297
273.324
273.337
273.342
273.342
273.34
273.337
273.335
273.334
273.331
273.328
273.322
273.315
273.315
273.333
273.403
273.582
273.92
273.198
273.285
273.346
273.381
273.397
273.401
273.4
273.396
273.393
273.39
273.387
273.382
273.376
273.366
273.356
273.353
273.375
273.452
273.634
273.949
273.211
273.32
273.397
273.439
273.456
273.459
273.457
273.453
273.45
273.447
273.444
273.439
273.43
273.418
273.407
273.408
273.436
273.519
273.692
273.973
273.225
273.359
273.45
273.495
273.513
273.517
273.516
273.515
273.515
273.515
273.514
273.511
273.504
273.495
273.49
273.495
273.526
273.604
273.756
273.997
273.243
273.402
273.5
273.549
273.57
273.58
273.586
273.592
273.598
273.603
273.607
273.609
273.608
273.607
273.607
273.615
273.643
273.708
273.83
274.024
273.263
273.44
273.545
273.6
273.629
273.647
273.662
273.675
273.688
273.699
273.71
273.72
273.729
273.737
273.745
273.756
273.78
273.828
273.915
274.056
273.277
273.461
273.568
273.626
273.66
273.684
273.704
273.722
273.74
273.757
273.775
273.793
273.811
273.83
273.849
273.869
273.896
273.935
273.995
274.086
)
;

boundaryField
{
    leftWall
    {
        type            fixedValue;
        value           uniform 273.15;
    }
    rightWall
    {
        type            customNeumannDirichletCoupledBoundary;
        refValue        nonuniform List<scalar> 10(274.128 274.129 274.131 274.133 274.135 274.137 274.139 274.14 274.142 274.144);
        refGradient     uniform 0;
        valueFraction   uniform 1;
        source          uniform 0;
        value           nonuniform List<scalar> 10(274.128 274.129 274.131 274.133 274.135 274.137 274.139 274.14 274.142 274.144);
        kappaMethod     fluidThermo;
    }
    topWall
    {
        type            zeroGradient;
    }
    bottomWall
    {
        type            zeroGradient;
    }
    frontAndBackPlanes
    {
        type            empty;
    }
}


// ************************************************************************* //
