/*--------------------------------*- C++ -*----------------------------------*\
| =========                 |                                                 |
| \\      /  F ield         | OpenFOAM: The Open Source CFD Toolbox           |
|  \\    /   O peration     | Version:  2506                                  |
|   \\  /    A nd           | Website:  www.openfoam.com                      |
|    \\/     M anipulation  |                                                 |
\*---------------------------------------------------------------------------*/
FoamFile
{
    version     2.0;
    format      ascii;
    arch        "LSB;label=32;scalar=64";
    class       surfaceScalarField;
    location    "29.6";
    object      phi;
}
// * * * * * * * * * * * * * * * * * * * * * * * * * * * * * * * * * * * * * //

dimensions      [1 0 -1 0 0 0 0];

oriented        oriented;

internalField   nonuniform List<scalar> 
370
(
-6.10854e-05
-4.37256e-05
6.59982e-05
-0.000127082
0.000274567
-0.000208565
0.00055044
-0.000275869
0.00086765
-0.000317206
0.0012005
-0.000332847
0.00152921
-0.000328708
0.00184205
-0.000312831
0.00213538
-0.000293332
0.00241233
-0.000276955
0.00268044
-0.000268106
0.00294844
-0.000268007
0.00322112
-0.000272679
0.00349199
-0.000270869
0.00372977
-0.000237786
0.00385052
-0.000120749
0.00370007
0.000150467
0.00304817
0.000651925
0.00166708
0.00138114
0.00166711
9.4817e-05
-0.000138538
0.000388225
-0.000420474
0.000840013
-0.000660329
0.00139627
-0.000832091
0.00200491
-0.0009258
0.00262045
-0.00094834
0.0032088
-0.000917009
0.00374868
-0.000852653
0.00422978
-0.000774376
0.00464893
-0.000696062
0.00500507
-0.000624196
0.00529313
-0.000556021
0.00549743
-0.000476951
0.00558266
-0.000356068
0.00548326
-0.000138355
0.00509949
0.000263037
0.00429393
0.000956064
0.00294455
0.00200136
0.00119817
0.00312759
0.00286533
0.000174378
-0.000312903
0.00060732
-0.000853377
0.00121391
-0.00126686
0.0019104
-0.00152849
0.00262566
-0.00164093
0.00330657
-0.00162909
0.00391953
-0.00152981
0.00444795
-0.0013809
0.00488686
-0.00121312
0.00523656
-0.0010456
0.00549591
-0.000883404
0.00565572
-0.000715707
0.00569235
-0.000513465
0.00556246
-0.000226086
0.00520055
0.000223632
0.00453476
0.000928894
0.00351331
0.00197759
0.00217023
0.00334454
0.000774627
0.00452332
0.00364003
0.00022223
-0.000535109
0.000737227
-0.0013683
0.00141053
-0.00194003
0.00213064
-0.00224838
0.00281445
-0.00232446
0.00341035
-0.00222466
0.00389584
-0.00201493
0.00426989
-0.00175459
0.00454344
-0.00148633
0.00473015
-0.00123199
0.0048385
-0.000991457
0.00486491
-0.000741859
0.0047881
-0.000436427
0.00457107
-8.87183e-06
0.00415501
0.000639844
0.00349783
0.0015862
0.00258481
0.00289073
0.0014925
0.004437
0.000475696
0.00554029
0.00411583
0.000244888
-0.000779958
0.000765883
-0.00188916
0.00139372
-0.0025676
0.00200381
-0.00285805
0.00251566
-0.00283575
0.00289254
-0.00260088
0.00313454
-0.00225626
0.00326498
-0.00188439
0.00331619
-0.00153696
0.00331805
-0.00123333
0.00328949
-0.000962444
0.00323259
-0.000684568
0.00312952
-0.000333016
0.00293933
0.000181593
0.00262433
0.00095507
0.00214586
0.00206487
0.00150686
0.00352991
0.000789228
0.00515484
0.000199941
0.00612979
0.00431589
0.000217783
-0.000997676
0.00062292
-0.00229407
0.00104501
-0.00298922
0.00137647
-0.00318874
0.00156161
-0.00301989
0.0015952
-0.00263339
0.00150977
-0.00216978
0.00135501
-0.0017287
0.00118031
-0.00136147
0.00102285
-0.00107521
0.000901478
-0.000840513
0.000814769
-0.000597379
0.000742495
-0.000260325
0.000652314
0.000272119
0.000514916
0.00109277
0.00031713
0.00226292
8.51235e-05
0.00376219
-0.000100384
0.00534066
-0.000128861
0.00615851
0.00418713
0.000101523
-0.0010991
0.000209665
-0.00240183
0.000216528
-0.00299527
7.62449e-05
-0.0030472
-0.000207195
-0.00273489
-0.000593593
-0.00224541
-0.00102294
-0.00173904
-0.00143669
-0.00131383
-0.00179189
-0.0010054
-0.00206572
-0.000800674
-0.00225327
-0.000652352
-0.00236136
-0.000488714
-0.00240112
-0.000220017
-0.00237538
0.000246878
-0.00227681
0.000994647
-0.00208263
0.00206917
-0.00174661
0.00342657
-0.00121584
0.00481026
-0.000525377
0.00546831
0.00366185
-0.000142222
-0.000956706
-0.000543124
-0.0020003
-0.0011481
-0.00238902
-0.00188628
-0.00230713
-0.00267643
-0.00194261
-0.00344125
-0.00147861
-0.00412624
-0.00105243
-0.00470296
-0.000735863
-0.00516468
-0.000542688
-0.00551724
-0.000447267
-0.00576788
-0.000400935
-0.00591426
-0.000341569
-0.00593565
-0.000197896
-0.00579286
0.000104773
-0.00542527
0.000627688
-0.00477097
0.00141543
-0.00377436
0.00243045
-0.00243857
0.00347488
-0.000961463
0.00399148
0.00270049
-0.00045406
-0.000502404
-0.00143949
-0.00101398
-0.00266116
-0.0011656
-0.0039026
-0.00106324
-0.0050175
-0.000825061
-0.00593356
-0.00056013
-0.00664294
-0.000341044
-0.00717854
-0.000198692
-0.00758804
-0.000131934
-0.00791275
-0.000121505
-0.00817218
-0.000140583
-0.00835451
-0.00015838
-0.00841011
-0.000141467
-0.0082563
-4.82321e-05
-0.00778351
0.000155612
-0.00686935
0.000501901
-0.00542697
0.00098859
-0.00347959
0.00152791
-0.00134372
0.0018559
0.00135689
-0.000502151
-0.00151517
-0.00267885
-0.00373939
-0.00456143
-0.00511866
-0.00545718
-0.00565377
-0.00578402
-0.00590417
-0.00604365
-0.0062011
-0.00634176
-0.00638928
-0.00623301
-0.00573054
-0.00474147
-0.00321318
-0.00135701
)
;

boundaryField
{
    leftWall
    {
        type            calculated;
        value           nonuniform List<scalar> 10(0 0 0 0 0 -3.38813e-21 0 0 0 0);
    }
    rightWall
    {
        type            calculated;
        value           nonuniform List<scalar> 10(0 0 4.33681e-19 0 0 0 0 0 0 0);
    }
    topWall
    {
        type            calculated;
        value           uniform 0;
    }
    bottomWall
    {
        type            calculated;
        value           uniform 0;
    }
    frontAndBackPlanes
    {
        type            empty;
    }
}


// ************************************************************************* //
