/*--------------------------------*- C++ -*----------------------------------*\
| =========                 |                                                 |
| \\      /  F ield         | OpenFOAM: The Open Source CFD Toolbox           |
|  \\    /   O peration     | Version:  2506                                  |
|   \\  /    A nd           | Website:  www.openfoam.com                      |
|    \\/     M anipulation  |                                                 |
\*---------------------------------------------------------------------------*/
FoamFile
{
    version     2.0;
    format      ascii;
    arch        "LSB;label=32;scalar=64";
    class       volScalarField;
    location    "29.6";
    object      T;
}
// * * * * * * * * * * * * * * * * * * * * * * * * * * * * * * * * * * * * * //

dimensions      [0 0 0 1 0 0 0];

internalField   nonuniform List<scalar> 
200
(
273.15
273.149
273.148
273.147
273.146
273.146
273.146
273.145
273.145
273.145
273.145
273.145
273.145
273.147
273.149
273.157
273.179
273.24
273.404
273.791
273.149
273.148
273.147
273.146
273.146
273.145
273.145
273.144
273.144
273.144
273.144
273.144
273.144
273.144
273.146
273.151
273.17
273.231
273.405
273.808
273.149
273.148
273.146
273.145
273.145
273.144
273.144
273.145
273.145
273.145
273.144
273.144
273.143
273.143
273.144
273.149
273.17
273.238
273.425
273.833
273.149
273.147
273.146
273.145
273.145
273.147
273.148
273.15
273.151
273.151
273.151
273.149
273.147
273.145
273.145
273.151
273.175
273.252
273.453
273.857
273.149
273.147
273.146
273.147
273.151
273.156
273.161
273.165
273.168
273.169
273.167
273.163
273.158
273.153
273.151
273.158
273.188
273.277
273.489
273.884
273.149
273.147
273.148
273.154
273.164
273.177
273.189
273.197
273.202
273.202
273.198
273.19
273.18
273.172
273.169
273.18
273.219
273.322
273.543
273.912
273.149
273.147
273.153
273.168
273.192
273.216
273.237
273.25
273.255
273.255
273.249
273.24
273.229
273.223
273.227
273.245
273.295
273.402
273.608
273.938
273.149
273.15
273.165
273.196
273.236
273.274
273.304
273.324
273.335
273.341
273.342
273.341
273.34
273.34
273.348
273.371
273.42
273.517
273.691
273.968
273.149
273.154
273.18
273.227
273.285
273.34
273.386
273.421
273.448
273.468
273.484
273.497
273.507
273.517
273.529
273.551
273.592
273.667
273.797
274.006
273.147
273.152
273.179
273.229
273.293
273.358
273.419
273.472
273.517
273.555
273.589
273.618
273.645
273.67
273.695
273.724
273.762
273.82
273.909
274.049
)
;

boundaryField
{
    leftWall
    {
        type            fixedValue;
        value           uniform 273.15;
    }
    rightWall
    {
        type            customNeumannDirichletCoupledBoundary;
        refValue        nonuniform List<scalar> 10(274.125 274.126 274.127 274.129 274.131 274.133 274.134 274.136 274.139 274.14);
        refGradient     uniform 0;
        valueFraction   uniform 1;
        source          uniform 0;
        value           nonuniform List<scalar> 10(274.125 274.126 274.127 274.129 274.131 274.133 274.134 274.136 274.139 274.14);
        kappaMethod     fluidThermo;
    }
    topWall
    {
        type            zeroGradient;
    }
    bottomWall
    {
        type            zeroGradient;
    }
    frontAndBackPlanes
    {
        type            empty;
    }
}


// ************************************************************************* //
