/*--------------------------------*- C++ -*----------------------------------*\
| =========                 |                                                 |
| \\      /  F ield         | OpenFOAM: The Open Source CFD Toolbox           |
|  \\    /   O peration     | Version:  2506                                  |
|   \\  /    A nd           | Website:  www.openfoam.com                      |
|    \\/     M anipulation  |                                                 |
\*---------------------------------------------------------------------------*/
FoamFile
{
    version     2.0;
    format      ascii;
    arch        "LSB;label=32;scalar=64";
    class       volScalarField;
    location    "46.8";
    object      T;
}
// * * * * * * * * * * * * * * * * * * * * * * * * * * * * * * * * * * * * * //

dimensions      [0 0 0 1 0 0 0];

internalField   nonuniform List<scalar> 
200
(
273.15
273.151
273.151
273.151
273.152
273.152
273.151
273.151
273.151
273.151
273.151
273.151
273.152
273.153
273.155
273.163
273.186
273.249
273.413
273.797
273.151
273.155
273.157
273.16
273.161
273.162
273.162
273.162
273.162
273.162
273.161
273.161
273.161
273.16
273.161
273.166
273.185
273.248
273.423
273.82
273.154
273.163
273.171
273.177
273.18
273.182
273.183
273.183
273.183
273.182
273.181
273.179
273.177
273.174
273.172
273.175
273.196
273.266
273.454
273.849
273.159
273.176
273.192
273.203
273.21
273.214
273.215
273.214
273.213
273.211
273.208
273.204
273.199
273.193
273.187
273.189
273.213
273.291
273.491
273.878
273.165
273.195
273.22
273.238
273.249
273.254
273.255
273.254
273.252
273.248
273.244
273.237
273.228
273.217
273.207
273.209
273.238
273.327
273.534
273.906
273.173
273.218
273.255
273.281
273.296
273.303
273.304
273.302
273.299
273.296
273.29
273.282
273.27
273.255
273.242
273.247
273.285
273.385
273.592
273.933
273.182
273.244
273.296
273.331
273.351
273.359
273.362
273.362
273.362
273.361
273.358
273.351
273.341
273.33
273.324
273.334
273.375
273.472
273.659
273.958
273.194
273.276
273.342
273.386
273.411
273.426
273.435
273.443
273.45
273.456
273.459
273.461
273.459
273.457
273.457
273.469
273.506
273.588
273.741
273.988
273.207
273.308
273.386
273.44
273.476
273.502
273.523
273.541
273.557
273.572
273.585
273.597
273.608
273.617
273.627
273.64
273.67
273.731
273.842
274.025
273.215
273.324
273.408
273.469
273.513
273.548
273.577
273.603
273.627
273.65
273.673
273.695
273.718
273.74
273.764
273.788
273.819
273.867
273.944
274.064
)
;

boundaryField
{
    leftWall
    {
        type            fixedValue;
        value           uniform 273.15;
    }
    rightWall
    {
        type            customNeumannDirichletCoupledBoundary;
        refValue        nonuniform List<scalar> 10(274.125 274.126 274.128 274.13 274.132 274.134 274.136 274.138 274.14 274.142);
        refGradient     uniform 0;
        valueFraction   uniform 1;
        source          uniform 0;
        value           nonuniform List<scalar> 10(274.125 274.126 274.128 274.13 274.132 274.134 274.136 274.138 274.14 274.142);
        kappaMethod     fluidThermo;
    }
    topWall
    {
        type            zeroGradient;
    }
    bottomWall
    {
        type            zeroGradient;
    }
    frontAndBackPlanes
    {
        type            empty;
    }
}


// ************************************************************************* //
