/*--------------------------------*- C++ -*----------------------------------*\
| =========                 |                                                 |
| \\      /  F ield         | OpenFOAM: The Open Source CFD Toolbox           |
|  \\    /   O peration     | Version:  2506                                  |
|   \\  /    A nd           | Website:  www.openfoam.com                      |
|    \\/     M anipulation  |                                                 |
\*---------------------------------------------------------------------------*/
FoamFile
{
    version     2.0;
    format      ascii;
    arch        "LSB;label=32;scalar=64";
    class       surfaceScalarField;
    location    "22.4";
    object      phi;
}
// * * * * * * * * * * * * * * * * * * * * * * * * * * * * * * * * * * * * * //

dimensions      [1 0 -1 0 0 0 0];

oriented        oriented;

internalField   nonuniform List<scalar> 
370
(
-7.43884e-05
-3.3462e-05
1.87466e-05
-9.31377e-05
0.000179532
-0.00016079
0.000407762
-0.000228238
0.000691803
-0.000284052
0.00101617
-0.000324384
0.00136475
-0.000348591
0.00172275
-0.000358024
0.00207842
-0.000355689
0.00242403
-0.000345628
0.00275599
-0.00033197
0.00307367
-0.000317704
0.00337568
-0.000302021
0.00365283
-0.000277167
0.00387503
-0.000222213
0.00396114
-8.61222e-05
0.00377296
0.00018819
0.0030845
0.000688485
0.00167842
0.00140612
0.00167845
5.50705e-05
-8.85297e-05
0.000256152
-0.000294211
0.000592409
-0.000497037
0.00104239
-0.000678209
0.00158086
-0.000822512
0.00217853
-0.00092205
0.0028047
-0.000974761
0.00342995
-0.000983268
0.00402799
-0.000953727
0.00457633
-0.000893975
0.00505519
-0.000810822
0.00544405
-0.000706571
0.0057166
-0.000574577
0.00583265
-0.000393215
0.00572732
-0.000116897
0.00530875
0.000332434
0.00444354
0.00105339
0.00302976
0.00210226
0.0012274
0.00320849
0.00290586
0.000107172
-0.000195693
0.000393369
-0.000580385
0.000829643
-0.000933278
0.00138292
-0.00123145
0.00201867
-0.00145823
0.00270042
-0.00160377
0.00339108
-0.00166538
0.00405533
-0.00164748
0.00466181
-0.00156016
0.00518377
-0.00141588
0.00559737
-0.00122438
0.0058775
-0.000986655
0.0059917
-0.000688751
0.00589396
-0.000295449
0.00552133
0.000255739
0.00480856
0.00104519
0.00371434
0.00214759
0.00228795
0.00352862
0.000816391
0.00468004
0.00372226
0.000126399
-0.000322078
0.00044512
-0.000899066
0.000908436
-0.00139654
0.00147535
-0.00179831
0.00210617
-0.00208899
0.00276032
-0.00225783
0.00339738
-0.00230235
0.00398051
-0.00223048
0.00447987
-0.00205937
0.00487389
-0.00180975
0.0051469
-0.00149723
0.00528333
-0.00112295
0.00526022
-0.000665523
0.00504241
-7.75567e-05
0.00458293
0.000715263
0.00384737
0.00178076
0.00283504
0.0031599
0.00163738
0.00472624
0.000526736
0.00579066
0.00424899
0.00012345
-0.000445506
0.000417256
-0.00119282
0.000828987
-0.0018082
0.00131815
-0.00228738
0.00184616
-0.00261688
0.00237272
-0.00278423
0.00285789
-0.00278727
0.00326791
-0.00264017
0.00358102
-0.00237209
0.00378898
-0.0020173
0.00389279
-0.00160066
0.00389402
-0.00112386
0.00378498
-0.000556228
0.00354234
0.000165269
0.00313466
0.00112306
0.00254216
0.00237333
0.00178104
0.00392103
0.000946057
0.00556122
0.00025378
0.00648294
0.00450279
8.68266e-05
-0.000532307
0.000277975
-0.0013839
0.000533787
-0.00206391
0.000826476
-0.00257994
0.0011269
-0.00291708
0.00140165
-0.0030586
0.00161769
-0.00300272
0.00175194
-0.00277365
0.00179891
-0.00241821
0.00177062
-0.00198817
0.00168826
-0.00151759
0.00157001
-0.00100504
0.00142028
-0.000406092
0.00122582
0.000360055
0.0009742
0.0013749
0.000661065
0.0026866
0.00031784
0.00426434
2.97455e-05
0.00584938
-8.52126e-05
0.006598
0.00441759
1.2493e-06
-0.000533525
-1.42974e-05
-0.00136828
-4.86747e-05
-0.00202941
-0.000103938
-0.00252445
-0.000189793
-0.00283078
-0.000322361
-0.00292522
-0.000515162
-0.00280869
-0.000767993
-0.00251928
-0.00106171
-0.0021229
-0.00136327
-0.00168518
-0.00163767
-0.00124207
-0.00185886
-0.000783056
-0.00201352
-0.000250854
-0.00208941
0.000436439
-0.00207148
0.00135737
-0.00193862
0.00255405
-0.00165213
0.00397808
-0.00116708
0.00536452
-0.000510842
0.0059419
0.00390679
-0.000136151
-0.000397345
-0.000455931
-0.00104842
-0.000905696
-0.00157947
-0.00145223
-0.0019775
-0.00207205
-0.00221005
-0.00274469
-0.00225098
-0.00344537
-0.00210576
-0.00414021
-0.00182187
-0.00478857
-0.00147206
-0.00535046
-0.0011212
-0.00579215
-0.000798786
-0.0060848
-0.000489221
-0.00619782
-0.000136931
-0.00608583
0.000325181
-0.00570064
0.000972777
-0.00499485
0.00184876
-0.00393031
0.00291396
-0.00252583
0.00396036
-0.000990882
0.00440718
0.00291599
-0.000242802
-0.000154523
-0.000826611
-0.000464528
-0.00166745
-0.000738387
-0.00269689
-0.000947395
-0.0038407
-0.00106477
-0.00501791
-0.00107127
-0.00614874
-0.000971554
-0.00716678
-0.000800086
-0.00802808
-0.000607191
-0.00871193
-0.000434317
-0.00920995
-0.000298369
-0.00950784
-0.000189495
-0.00956555
-7.781e-05
-0.00932313
8.3853e-05
-0.00869103
0.000341584
-0.00757475
0.000733251
-0.00591016
0.00125
-0.0037452
0.00179592
-0.00142879
0.00209113
0.00148735
-0.000154513
-0.000618992
-0.00135718
-0.00230394
-0.00336722
-0.00443583
-0.00540363
-0.00619936
-0.00680215
-0.00723247
-0.00752744
-0.00771418
-0.0077898
-0.0077042
-0.00736121
-0.00662681
-0.00537589
-0.00357925
-0.00148759
)
;

boundaryField
{
    leftWall
    {
        type            calculated;
        value           nonuniform List<scalar> 10(0 0 0 0 0 0 0 -2.71051e-20 0 0);
    }
    rightWall
    {
        type            calculated;
        value           nonuniform List<scalar> 10(0 0 -4.33681e-19 0 0 -8.67362e-19 8.67362e-19 -8.67362e-19 0 0);
    }
    topWall
    {
        type            calculated;
        value           uniform 0;
    }
    bottomWall
    {
        type            calculated;
        value           uniform 0;
    }
    frontAndBackPlanes
    {
        type            empty;
    }
}


// ************************************************************************* //
