/*--------------------------------*- C++ -*----------------------------------*\
| =========                 |                                                 |
| \\      /  F ield         | OpenFOAM: The Open Source CFD Toolbox           |
|  \\    /   O peration     | Version:  2506                                  |
|   \\  /    A nd           | Website:  www.openfoam.com                      |
|    \\/     M anipulation  |                                                 |
\*---------------------------------------------------------------------------*/
FoamFile
{
    version     2.0;
    format      ascii;
    arch        "LSB;label=32;scalar=64";
    class       surfaceScalarField;
    location    "116.8";
    object      phi;
}
// * * * * * * * * * * * * * * * * * * * * * * * * * * * * * * * * * * * * * //

dimensions      [1 0 -1 0 0 0 0];

oriented        oriented;

internalField   nonuniform List<scalar> 
370
(
0.000311707
-0.000347872
0.000826728
-0.000514957
0.00127435
-0.000447531
0.00158318
-0.000308719
0.00176184
-0.000178532
0.00184975
-8.77652e-05
0.00189059
-4.06933e-05
0.00192064
-2.98869e-05
0.00196621
-4.54102e-05
0.00204499
-7.86035e-05
0.00216808
-0.000122905
0.00234175
-0.00017348
0.00256654
-0.000224601
0.00283123
-0.000264488
0.00309906
-0.000267624
0.00328216
-0.000182893
0.00320767
7.47007e-05
0.00266245
0.000545428
0.00144485
0.00121778
0.00144495
0.000435023
-0.000782862
0.00116649
-0.00124634
0.00186556
-0.00114647
0.00240606
-0.000849076
0.00277449
-0.000546802
0.00300646
-0.000319571
0.00315091
-0.000184976
0.00325261
-0.000131408
0.00334492
-0.000137541
0.00344869
-0.000182188
0.00357355
-0.000247586
0.00371818
-0.000317917
0.00386747
-0.000373696
0.00398552
-0.000382337
0.00400411
-0.000286004
0.00381775
3.67461e-06
0.0032852
0.000607461
0.00227493
0.00155591
0.000918842
0.00257405
0.00236388
0.000422131
-0.00120495
0.00111061
-0.00193471
0.00176559
-0.00180128
0.00227655
-0.00135985
0.00263402
-0.000904076
0.00286958
-0.000554926
0.00302341
-0.000338609
0.00312984
-0.000237633
0.00321268
-0.00022017
0.00328516
-0.000254471
0.00335101
-0.000313229
0.00340424
-0.000370939
0.00342645
-0.000395691
0.00338165
-0.000337325
0.00321216
-0.000116297
0.00284112
0.000374943
0.00221938
0.00122942
0.00135667
0.00241883
0.000458493
0.00347241
0.00282246
0.000363706
-0.00156861
0.000919619
-0.00249049
0.00141375
-0.00229523
0.00177358
-0.00171946
0.00201024
-0.00114052
0.00215958
-0.000704035
0.00225497
-0.000433773
0.00231895
-0.000301386
0.00236363
-0.00026462
0.00239377
-0.000284388
0.00240913
-0.000328375
0.00240428
-0.000365862
0.00236561
-0.000356794
0.0022672
-0.000238686
0.00207024
8.08892e-05
0.00173721
0.000708212
0.00125328
0.00171358
0.000672862
0.00299948
0.000170643
0.00397481
0.00299318
0.000282475
-0.00185103
0.000653699
-0.00286156
0.000928263
-0.00256958
0.00108621
-0.00187718
0.00116397
-0.00121804
0.00120041
-0.000740233
0.00121937
-0.000452501
0.00123032
-0.000312101
0.00123455
-0.000268627
0.00123077
-0.000280372
0.00121732
-0.000314698
0.00119091
-0.000339227
0.00114297
-0.000308626
0.00105652
-0.000152005
0.000907984
0.000229665
0.000682399
0.000934036
0.000392632
0.00200358
0.000110492
0.00328184
-3.94386e-05
0.00412492
0.00295381
0.00017554
-0.00202651
0.000306641
-0.0029925
0.000314623
-0.00257735
0.000244962
-0.00180728
0.000154736
-0.00112757
7.55372e-05
-0.000660796
1.50469e-05
-0.000391779
-3.11025e-05
-0.000265724
-6.94292e-05
-0.000230075
-0.000104341
-0.000245236
-0.000138333
-0.000280481
-0.000174676
-0.000302659
-0.000219747
-0.000263327
-0.000282111
-8.94078e-05
-0.000364284
0.000312077
-0.000453126
0.00102312
-0.000505947
0.00205664
-0.00045125
0.00322736
-0.000241027
0.00391486
0.00271285
4.07303e-06
-0.00203052
-0.000179412
-0.00280885
-0.000487111
-0.00226943
-0.000804583
-0.00148958
-0.00106858
-0.000863338
-0.00126635
-0.000462805
-0.00140993
-0.000247977
-0.00151638
-0.000159055
-0.00159909
-0.000147145
-0.00166643
-0.000177683
-0.00172373
-0.000222964
-0.00177479
-0.000251383
-0.00182025
-0.000217644
-0.00185189
-5.75422e-05
-0.00184129
0.000301704
-0.00174259
0.000924656
-0.00149348
0.00180775
-0.00104534
0.00277942
-0.000446002
0.00331567
0.00226691
-0.000262905
-0.00176754
-0.000876592
-0.00219498
-0.00154679
-0.00159902
-0.0021079
-0.000928242
-0.00251938
-0.00045164
-0.00280265
-0.000179319
-0.00299529
-5.5117e-05
-0.00313053
-2.3607e-05
-0.00323281
-4.46598e-05
-0.00331809
-9.22055e-05
-0.00339467
-0.000146184
-0.00346208
-0.000183768
-0.00350682
-0.000172711
-0.00349513
-6.90254e-05
-0.00337082
0.00017759
-0.00305944
0.000613479
-0.00248986
0.00123836
-0.00164285
0.00193259
-0.000655855
0.0023288
0.00161111
-0.000683562
-0.0010839
-0.00179462
-0.00108375
-0.00274896
-0.000644464
-0.00339669
-0.00028029
-0.00378015
-6.79651e-05
-0.00399026
3.09928e-05
-0.00410602
6.08492e-05
-0.004178
4.85572e-05
-0.00423907
1.6596e-05
-0.00430882
-2.22702e-05
-0.00439285
-6.19834e-05
-0.00448286
-9.35918e-05
-0.00455155
-0.00010386
-0.00454614
-7.42755e-05
-0.00438963
2.12397e-05
-0.00397751
0.00020151
-0.00322174
0.000482741
-0.00210797
0.000818944
-0.000826467
0.0010474
0.00078468
-0.00108381
-0.00216738
-0.00281163
-0.00309171
-0.00315947
-0.00312828
-0.00306725
-0.00301852
-0.00300175
-0.00302387
-0.0030857
-0.00317915
-0.00328288
-0.00335703
-0.00333568
-0.00313406
-0.00265121
-0.00183218
-0.000784709
)
;

boundaryField
{
    leftWall
    {
        type            calculated;
        value           nonuniform List<scalar> 10(0 0 0 0 0 0 0 -4.33681e-19 0 0);
    }
    rightWall
    {
        type            calculated;
        value           nonuniform List<scalar> 10(0 0 0 0 0 4.33681e-19 -4.33681e-19 0 0 0);
    }
    topWall
    {
        type            calculated;
        value           uniform 0;
    }
    bottomWall
    {
        type            calculated;
        value           uniform 0;
    }
    frontAndBackPlanes
    {
        type            empty;
    }
}


// ************************************************************************* //
