/*--------------------------------*- C++ -*----------------------------------*\
| =========                 |                                                 |
| \\      /  F ield         | OpenFOAM: The Open Source CFD Toolbox           |
|  \\    /   O peration     | Version:  2506                                  |
|   \\  /    A nd           | Website:  www.openfoam.com                      |
|    \\/     M anipulation  |                                                 |
\*---------------------------------------------------------------------------*/
FoamFile
{
    version     2.0;
    format      ascii;
    arch        "LSB;label=32;scalar=64";
    class       volScalarField;
    location    "16.8";
    object      p_rgh;
}
// * * * * * * * * * * * * * * * * * * * * * * * * * * * * * * * * * * * * * //

dimensions      [1 -1 -2 0 0 0 0];

internalField   nonuniform List<scalar> 
200
(
100000
100000
100000
100000
100000
100000
100000
100000
100000
100000
100000
100000
99999.9
99999.8
99999.7
99999.6
99999.4
99999.2
99998.8
99998.1
100000
100000
100000
100000
100000
100000
100000
100000
100000
100000
100000
100000
99999.9
99999.8
99999.8
99999.7
99999.6
99999.3
99998.6
99997
100000
100000
100000
100000
100000
100000
100000
100000
100000
100000
100000
100000
99999.9
99999.9
99999.8
99999.7
99999.6
99999.1
99997.9
99995.2
100000
100000
100000
100000
100000
100000
100000
100000
100000
100000
100000
100000
100000
99999.9
99999.9
99999.8
99999.5
99998.7
99996.9
99993.2
100000
100000
100000
100000
100000
100000
100000
100000
100000
100000
100000
100000
100000
100000
99999.9
99999.7
99999.3
99998.2
99995.7
99991
100000
100000
100000
100000
100000
100000
100000
100000
100000
100000
100000
100000
100000
99999.9
99999.8
99999.5
99998.9
99997.3
99994.1
99988.6
100000
100000
100000
100001
100001
100001
100001
100001
100000
100000
100000
99999.8
99999.6
99999.5
99999.3
99998.8
99997.8
99995.9
99992.3
99986.4
100000
100000
100001
100001
100001
100001
100001
100001
100000
100000
99999.5
99999
99998.5
99998.1
99997.7
99997
99995.9
99993.8
99990.1
99984.2
100000
100001
100001
100001
100001
100001
100001
100001
100000
99999.4
99998.4
99997.4
99996.3
99995.5
99994.7
99994
99992.8
99990.9
99987.7
99982.4
100000
100001
100001
100001
100001
100001
100001
100001
100000
99999.4
99998
99996.5
99994.8
99993.4
99992.1
99990.9
99989.6
99987.9
99985.2
99980.8
)
;

boundaryField
{
    leftWall
    {
        type            fixedFluxPressure;
        gradient        nonuniform List<scalar> 10(-0.0222911 -0.147669 -0.46284 -0.985131 -1.73425 -2.74429 -4.07757 -5.67659 -7.2838 -8.47923);
        value           nonuniform List<scalar> 10(100000 100000 100000 100000 100000 100000 100000 100000 100000 99999.9);
    }
    rightWall
    {
        type            fixedFluxPressure;
        gradient        nonuniform List<scalar> 10(-17.9876 -51.0718 -78.6302 -101.436 -119.335 -130.701 -139.904 -143.479 -137.036 -120.163);
        value           nonuniform List<scalar> 10(99997.7 99995.7 99993.3 99990.7 99988 99985.4 99982.9 99980.7 99978.9 99977.8);
    }
    topWall
    {
        type            fixedFluxPressure;
        gradient        uniform 0;
        value           nonuniform List<scalar> 
20
(
100000
100000
100000
100000
100000
100000
100000
100000
100000
100000
100000
100000
99999.9
99999.8
99999.7
99999.6
99999.4
99999.2
99998.8
99998.1
)
;
    }
    bottomWall
    {
        type            fixedFluxPressure;
        gradient        uniform 0;
        value           nonuniform List<scalar> 
20
(
100000
100001
100001
100001
100001
100001
100001
100001
100000
99999.4
99998
99996.5
99994.8
99993.4
99992.1
99990.9
99989.6
99987.9
99985.2
99980.8
)
;
    }
    frontAndBackPlanes
    {
        type            empty;
    }
}


// ************************************************************************* //
