/*--------------------------------*- C++ -*----------------------------------*\
| =========                 |                                                 |
| \\      /  F ield         | OpenFOAM: The Open Source CFD Toolbox           |
|  \\    /   O peration     | Version:  2506                                  |
|   \\  /    A nd           | Website:  www.openfoam.com                      |
|    \\/     M anipulation  |                                                 |
\*---------------------------------------------------------------------------*/
FoamFile
{
    version     2.0;
    format      ascii;
    arch        "LSB;label=32;scalar=64";
    class       volScalarField;
    location    "80.6";
    object      T;
}
// * * * * * * * * * * * * * * * * * * * * * * * * * * * * * * * * * * * * * //

dimensions      [0 0 0 1 0 0 0];

internalField   nonuniform List<scalar> 
200
(
273.157
273.169
273.178
273.184
273.188
273.19
273.192
273.193
273.194
273.195
273.197
273.199
273.201
273.203
273.207
273.216
273.239
273.301
273.462
273.824
273.163
273.186
273.203
273.214
273.22
273.222
273.223
273.224
273.224
273.225
273.227
273.228
273.23
273.231
273.232
273.237
273.256
273.317
273.484
273.852
273.172
273.213
273.243
273.261
273.27
273.274
273.274
273.274
273.273
273.273
273.273
273.273
273.272
273.27
273.268
273.27
273.288
273.352
273.527
273.885
273.184
273.245
273.289
273.315
273.327
273.332
273.332
273.33
273.328
273.326
273.324
273.322
273.318
273.312
273.306
273.305
273.323
273.394
273.574
273.917
273.196
273.278
273.337
273.371
273.386
273.391
273.389
273.386
273.383
273.379
273.376
273.372
273.365
273.355
273.345
273.343
273.364
273.442
273.626
273.946
273.208
273.313
273.387
273.428
273.445
273.448
273.446
273.443
273.439
273.437
273.434
273.428
273.419
273.407
273.396
273.397
273.425
273.509
273.685
273.97
273.222
273.351
273.439
273.484
273.502
273.506
273.506
273.505
273.505
273.505
273.504
273.5
273.493
273.484
273.479
273.485
273.516
273.595
273.749
273.994
273.24
273.394
273.49
273.538
273.559
273.569
273.576
273.582
273.588
273.593
273.597
273.599
273.599
273.597
273.597
273.606
273.634
273.7
273.824
274.022
273.26
273.432
273.535
273.589
273.619
273.638
273.653
273.666
273.679
273.691
273.702
273.712
273.721
273.729
273.737
273.749
273.773
273.822
273.91
274.054
273.273
273.452
273.557
273.615
273.65
273.675
273.695
273.714
273.732
273.75
273.768
273.786
273.805
273.824
273.843
273.864
273.891
273.93
273.992
274.085
)
;

boundaryField
{
    leftWall
    {
        type            fixedValue;
        value           uniform 273.15;
    }
    rightWall
    {
        type            customNeumannDirichletCoupledBoundary;
        refValue        nonuniform List<scalar> 10(274.128 274.129 274.131 274.133 274.135 274.137 274.138 274.14 274.142 274.143);
        refGradient     uniform 0;
        valueFraction   uniform 1;
        source          uniform 0;
        value           nonuniform List<scalar> 10(274.128 274.129 274.131 274.133 274.135 274.137 274.138 274.14 274.142 274.143);
        kappaMethod     fluidThermo;
    }
    topWall
    {
        type            zeroGradient;
    }
    bottomWall
    {
        type            zeroGradient;
    }
    frontAndBackPlanes
    {
        type            empty;
    }
}


// ************************************************************************* //
