/*--------------------------------*- C++ -*----------------------------------*\
| =========                 |                                                 |
| \\      /  F ield         | OpenFOAM: The Open Source CFD Toolbox           |
|  \\    /   O peration     | Version:  2506                                  |
|   \\  /    A nd           | Website:  www.openfoam.com                      |
|    \\/     M anipulation  |                                                 |
\*---------------------------------------------------------------------------*/
FoamFile
{
    version     2.0;
    format      ascii;
    arch        "LSB;label=32;scalar=64";
    class       surfaceScalarField;
    location    "74";
    object      phi;
}
// * * * * * * * * * * * * * * * * * * * * * * * * * * * * * * * * * * * * * //

dimensions      [1 0 -1 0 0 0 0];

oriented        oriented;

internalField   nonuniform List<scalar> 
370
(
0.000130603
-0.000192102
0.000445466
-0.000314784
0.000751087
-0.000305504
0.000996926
-0.000245698
0.00117704
-0.000179961
0.0013077
-0.000130484
0.00141223
-0.000104364
0.00151318
-0.000100764
0.00162934
-0.000115976
0.00177565
-0.000146124
0.00196387
-0.000188024
0.00220245
-0.000238372
0.00249377
-0.000291122
0.00282698
-0.000332988
0.00316326
-0.000336062
0.00341018
-0.000246696
0.00337491
3.54961e-05
0.00283726
0.000537874
0.00156244
0.00127502
0.00156255
0.000282872
-0.00047493
0.000795852
-0.00082764
0.00132659
-0.000836063
0.00177966
-0.000698559
0.00213394
-0.000534018
0.00240431
-0.000400618
0.00261856
-0.000318382
0.00280504
-0.00028701
0.00298695
-0.000297641
0.00318035
-0.000339283
0.00339347
-0.000400899
0.00362507
-0.000469718
0.00386007
-0.000525868
0.00406072
-0.000533371
0.0041534
-0.000428478
0.00401821
-0.000111238
0.00351054
0.000543437
0.00246309
0.00158559
0.0010091
0.00272924
0.00257178
0.000327315
-0.00080218
0.000888885
-0.00138903
0.00145618
-0.00140311
0.00193367
-0.00117576
0.00230272
-0.000902757
0.0025796
-0.000677175
0.00279091
-0.000529382
0.00296159
-0.000457372
0.00311012
-0.000445849
0.0032474
-0.00047625
0.00337659
-0.00052977
0.00349178
-0.00058459
0.00357419
-0.00060795
0.00358547
-0.00054432
0.00346132
-0.000304
0.00311405
0.000236365
0.00247216
0.00118565
0.00153972
0.00251834
0.000535607
0.00373361
0.00310751
0.000323708
-0.00112581
0.000849524
-0.00191463
0.00134938
-0.00190265
0.00174367
-0.00156969
0.00202831
-0.00118701
0.00222696
-0.000875439
0.00236665
-0.00066869
0.00246828
-0.000558625
0.00254494
-0.00052213
0.00260321
-0.000534149
0.00264453
-0.000570713
0.00266462
-0.000604302
0.00265016
-0.000593114
0.00257334
-0.000467112
0.00238891
-0.000119189
0.00204403
0.000581622
0.00151287
0.00171717
0.000845911
0.00318564
0.000236523
0.00434328
0.00334415
0.00028887
-0.00141458
0.00071098
-0.00233648
0.00106585
-0.00225715
0.00130681
-0.00181024
0.00145208
-0.00133186
0.00153372
-0.000956657
0.00157722
-0.000711768
0.00159755
-0.000578535
0.00160193
-0.000526106
0.00159365
-0.000525461
0.00157396
-0.000550618
0.00154122
-0.000571149
0.00148749
-0.000538979
0.00139444
-0.000373639
0.00123095
4.47211e-05
0.000971977
0.000841022
0.00062156
0.002068
0.000252374
0.0035552
1.16085e-05
0.00458433
0.00335589
0.000214602
-0.00162908
0.000454357
-0.00257595
0.00058416
-0.00238656
0.00061197
-0.00183761
0.000581054
-0.00130049
0.000526127
-0.00090129
0.000464767
-0.000649976
0.000402681
-0.000516026
0.000340809
-0.000463816
0.000279486
-0.000463722
0.00021881
-0.000489525
0.000156356
-0.000508275
8.46019e-05
-0.000466799
-8.31211e-06
-0.00028029
-0.00012921
0.000166066
-0.000266497
0.000978756
-0.000378125
0.00218005
-0.00038673
0.00356418
-0.00022797
0.00442586
0.00312803
7.11345e-05
-0.0017001
1.31111e-05
-0.00251762
-0.000173128
-0.0021999
-0.000412789
-0.00159751
-0.000646784
-0.00106605
-0.000850354
-0.000697286
-0.00102136
-0.000478551
-0.00116613
-0.000370833
-0.00129136
-0.000338179
-0.00140179
-0.000352884
-0.00150133
-0.000389572
-0.0015943
-0.000414896
-0.00168363
-0.000377041
-0.00176378
-0.000199717
-0.0018067
0.000209421
-0.00175626
0.000928755
-0.00153954
0.00196374
-0.0010987
0.00312371
-0.000478011
0.00380544
0.00265013
-0.000187082
-0.00151289
-0.000677124
-0.00202725
-0.00126019
-0.00161641
-0.00179038
-0.00106689
-0.00221737
-0.000638626
-0.00254488
-0.000369356
-0.00279588
-0.000227143
-0.00299476
-0.000171549
-0.00316099
-0.000171562
-0.00330821
-0.000205275
-0.00344465
-0.000252745
-0.00357097
-0.000288197
-0.00367428
-0.000273348
-0.0037189
-0.000154705
-0.00363952
0.000130433
-0.00334711
0.000636725
-0.0027557
0.00137269
-0.00183756
0.00220589
-0.000741645
0.00270977
0.00190858
-0.000583135
-0.000929603
-0.00158529
-0.00102475
-0.0025106
-0.000690683
-0.00320007
-0.000376985
-0.00366632
-0.000171958
-0.00397129
-6.39843e-05
-0.00417698
-2.10697e-05
-0.00433208
-1.60844e-05
-0.00446956
-3.3731e-05
-0.00460908
-6.54032e-05
-0.00475909
-0.000102411
-0.00491298
-0.000133974
-0.00504176
-0.000144257
-0.00508564
-0.000110506
-0.00495748
2.5715e-06
-0.00453004
0.000209589
-0.003699
0.000541943
-0.00244004
0.000947194
-0.000965183
0.0012351
0.000943478
-0.000929443
-0.00195384
-0.00264411
-0.00302068
-0.00319223
-0.00325583
-0.00327654
-0.00329228
-0.00332569
-0.00339079
-0.00349292
-0.00362662
-0.00377062
-0.00388089
-0.00387809
-0.00366829
-0.00312614
-0.00217877
-0.000943536
)
;

boundaryField
{
    leftWall
    {
        type            calculated;
        value           nonuniform List<scalar> 10(0 0 0 0 0 0 2.1684e-19 0 0 0);
    }
    rightWall
    {
        type            calculated;
        value           nonuniform List<scalar> 10(0 2.1684e-19 0 0 4.33681e-19 0 0 0 0 0);
    }
    topWall
    {
        type            calculated;
        value           uniform 0;
    }
    bottomWall
    {
        type            calculated;
        value           uniform 0;
    }
    frontAndBackPlanes
    {
        type            empty;
    }
}


// ************************************************************************* //
