/*--------------------------------*- C++ -*----------------------------------*\
| =========                 |                                                 |
| \\      /  F ield         | OpenFOAM: The Open Source CFD Toolbox           |
|  \\    /   O peration     | Version:  2506                                  |
|   \\  /    A nd           | Website:  www.openfoam.com                      |
|    \\/     M anipulation  |                                                 |
\*---------------------------------------------------------------------------*/
FoamFile
{
    version     2.0;
    format      ascii;
    arch        "LSB;label=32;scalar=64";
    class       volScalarField;
    location    "74";
    object      T;
}
// * * * * * * * * * * * * * * * * * * * * * * * * * * * * * * * * * * * * * //

dimensions      [0 0 0 1 0 0 0];

internalField   nonuniform List<scalar> 
200
(
273.155
273.164
273.171
273.176
273.179
273.181
273.182
273.183
273.184
273.185
273.186
273.187
273.189
273.191
273.195
273.203
273.226
273.289
273.45
273.818
273.16
273.179
273.194
273.203
273.207
273.21
273.21
273.211
273.211
273.212
273.213
273.214
273.216
273.216
273.217
273.222
273.241
273.302
273.471
273.845
273.169
273.204
273.229
273.245
273.253
273.257
273.257
273.257
273.256
273.256
273.256
273.256
273.255
273.253
273.25
273.252
273.27
273.336
273.513
273.879
273.179
273.233
273.272
273.296
273.307
273.311
273.311
273.31
273.308
273.306
273.304
273.302
273.298
273.292
273.285
273.284
273.303
273.375
273.559
273.91
273.191
273.265
273.318
273.349
273.364
273.368
273.367
273.364
273.361
273.358
273.355
273.351
273.343
273.333
273.322
273.32
273.343
273.423
273.611
273.939
273.203
273.298
273.367
273.405
273.421
273.425
273.424
273.421
273.418
273.415
273.412
273.407
273.397
273.384
273.372
273.373
273.403
273.489
273.67
273.964
273.216
273.335
273.418
273.461
273.479
273.484
273.484
273.484
273.484
273.484
273.483
273.479
273.471
273.462
273.456
273.462
273.494
273.575
273.735
273.989
273.233
273.376
273.468
273.515
273.537
273.548
273.555
273.561
273.568
273.573
273.577
273.579
273.579
273.577
273.577
273.586
273.615
273.683
273.811
274.016
273.252
273.414
273.513
273.567
273.597
273.617
273.633
273.647
273.66
273.673
273.685
273.695
273.705
273.713
273.721
273.733
273.758
273.808
273.9
274.049
273.265
273.434
273.536
273.594
273.629
273.655
273.676
273.696
273.715
273.734
273.753
273.772
273.792
273.811
273.832
273.853
273.88
273.921
273.985
274.082
)
;

boundaryField
{
    leftWall
    {
        type            fixedValue;
        value           uniform 273.15;
    }
    rightWall
    {
        type            customNeumannDirichletCoupledBoundary;
        refValue        nonuniform List<scalar> 10(274.127 274.128 274.13 274.132 274.134 274.136 274.138 274.14 274.142 274.143);
        refGradient     uniform 0;
        valueFraction   uniform 1;
        source          uniform 0;
        value           nonuniform List<scalar> 10(274.127 274.128 274.13 274.132 274.134 274.136 274.138 274.14 274.142 274.143);
        kappaMethod     fluidThermo;
    }
    topWall
    {
        type            zeroGradient;
    }
    bottomWall
    {
        type            zeroGradient;
    }
    frontAndBackPlanes
    {
        type            empty;
    }
}


// ************************************************************************* //
