/*--------------------------------*- C++ -*----------------------------------*\
| =========                 |                                                 |
| \\      /  F ield         | OpenFOAM: The Open Source CFD Toolbox           |
|  \\    /   O peration     | Version:  2506                                  |
|   \\  /    A nd           | Website:  www.openfoam.com                      |
|    \\/     M anipulation  |                                                 |
\*---------------------------------------------------------------------------*/
FoamFile
{
    version     2.0;
    format      ascii;
    arch        "LSB;label=32;scalar=64";
    class       surfaceScalarField;
    location    "128";
    object      phi;
}
// * * * * * * * * * * * * * * * * * * * * * * * * * * * * * * * * * * * * * //

dimensions      [1 0 -1 0 0 0 0];

oriented        oriented;

internalField   nonuniform List<scalar> 
370
(
0.000347404
-0.000378813
0.000902159
-0.000554699
0.00137887
-0.000476627
0.00170215
-0.000323189
0.00188315
-0.000180888
0.00196537
-8.20939e-05
0.00199615
-3.06501e-05
0.00201417
-1.7881e-05
0.00204704
-3.27212e-05
0.00211316
-6.59631e-05
0.00222366
-0.000110337
0.0023845
-0.00016067
0.00259582
-0.000211153
0.00284611
-0.000250104
0.00309855
-0.00025226
0.00326561
-0.000166868
0.0031794
8.63955e-05
0.00262885
0.000550746
0.00142064
0.00120837
0.00142073
0.000463513
-0.000842297
0.00123642
-0.00132753
0.00196824
-0.00120834
0.00252715
-0.00088197
0.00290087
-0.000554463
0.00312852
-0.000309605
0.00326262
-0.000164597
0.0033508
-0.000105912
0.00342837
-0.000110134
0.00351695
-0.00015438
0.00362646
-0.000219685
0.00375553
-0.000289568
0.00388892
-0.000344368
0.00399084
-0.000351843
0.00399401
-0.000255251
0.0037929
3.44315e-05
0.00325191
0.000627568
0.00224454
0.00155831
0.000903628
0.00254945
0.00232444
0.000438659
-0.00128092
0.00114943
-0.0020382
0.00182002
-0.00187878
0.00233743
-0.00139922
0.00269387
-0.000910722
0.00292351
-0.000539071
0.0030688
-0.000309712
0.00316557
-0.000202496
0.00323842
-0.000182813
0.00330094
-0.000216722
0.00335687
-0.00027543
0.00340011
-0.000332629
0.0034122
-0.000356274
0.00335733
-0.000296781
0.00317841
-7.61417e-05
0.00280377
0.000409266
0.00218279
0.00124874
0.00132941
0.00241188
0.000447047
0.00343197
0.00277156
0.000369455
-0.00165033
0.000928682
-0.00259731
0.00142013
-0.00237006
0.0017729
-0.00175181
0.00200088
-0.00113851
0.00214198
-0.000679969
0.00223052
-0.000398049
0.00228912
-0.000260901
0.00232953
-0.000223032
0.00235611
-0.000243106
0.00236827
-0.000287392
0.00236029
-0.000324457
0.00231847
-0.000314261
0.00221723
-0.000195345
0.00201898
0.000122311
0.00168852
0.000739936
0.00121239
0.00172507
0.000645896
0.00297858
0.000160723
0.0039173
0.00293235
0.000279569
-0.00192985
0.000639158
-0.00295677
0.000897557
-0.00262828
0.0010397
-0.00189375
0.00110507
-0.00120367
0.0011335
-0.000708188
0.00114858
-0.000412924
0.00115847
-0.000270593
0.00116334
-0.000227708
0.00116111
-0.000240672
0.00114963
-0.00027572
0.00112532
-0.000299948
0.00107952
-0.000268261
0.000995635
-0.000111257
0.000851417
0.000266733
0.000632825
0.000958735
0.000354396
0.0020037
8.7644e-05
0.00324552
-4.71445e-05
0.00405224
0.00288527
0.000166551
-0.00209635
0.000276547
-0.00306663
0.000261776
-0.00261333
0.000174404
-0.00180618
7.35258e-05
-0.00110258
-1.01888e-05
-0.00062427
-7.11873e-05
-0.000351727
-0.000115045
-0.000226539
-0.000149572
-0.000192985
-0.000179944
-0.000210106
-0.000209085
-0.000246385
-0.000240428
-0.000268411
-0.00028019
-0.000228303
-0.000336506
-5.47408e-05
-0.000410732
0.000341166
-0.000489453
0.00103767
-0.000530111
0.00204456
-0.000462772
0.00317837
-0.000242954
0.00383256
0.00264237
-8.34116e-06
-0.00208795
-0.000215645
-0.00285918
-0.000545326
-0.00228346
-0.000876845
-0.00147446
-0.00114682
-0.000832407
-0.0013447
-0.000426194
-0.00148476
-0.000211478
-0.0015859
-0.000125207
-0.00166229
-0.000116408
-0.00172285
-0.000149358
-0.00177319
-0.00019586
-0.00181702
-0.000224398
-0.00185454
-0.000190593
-0.00187718
-3.19053e-05
-0.00185621
0.000320388
-0.00174726
0.000928912
-0.00148993
0.00178743
-0.00103794
0.00272656
-0.000440697
0.00323545
0.00220173
-0.000276885
-0.00181101
-0.000912157
-0.00222376
-0.001598
-0.00159743
-0.00216539
-0.000906875
-0.00257551
-0.000422097
-0.00285286
-0.000148662
-0.00303706
-2.70878e-05
-0.00316279
7.01758e-07
-0.00325523
-2.37987e-05
-0.00333072
-7.36889e-05
-0.00339764
-0.000128767
-0.00345529
-0.000166579
-0.00348994
-0.000155768
-0.00346783
-5.38495e-05
-0.00333454
0.00018727
-0.00301774
0.000612288
-0.00244909
0.00121895
-0.00161156
0.00188917
-0.000641486
0.00226549
0.00156028
-0.000700977
-0.00110996
-0.00183087
-0.00109371
-0.00279072
-0.000637399
-0.0034323
-0.000265105
-0.00380216
-5.20536e-05
-0.0039987
4.80538e-05
-0.00409988
7.42573e-05
-0.00415829
5.92808e-05
-0.0042074
2.54685e-05
-0.00426584
-1.50987e-05
-0.0043392
-5.5259e-05
-0.00441873
-8.6908e-05
-0.00447723
-9.71205e-05
-0.0044629
-6.80447e-05
-0.00430054
2.50396e-05
-0.00388907
0.000200955
-0.00314379
0.000473788
-0.00205264
0.000798131
-0.000802917
0.00101585
0.000757403
-0.00110989
-0.00220344
-0.00284066
-0.00310559
-0.00315747
-0.00310924
-0.00303483
-0.0029754
-0.00294979
-0.00296475
-0.00301988
-0.00310667
-0.00320367
-0.00327161
-0.00324647
-0.00304542
-0.00257155
-0.00177334
-0.000757428
)
;

boundaryField
{
    leftWall
    {
        type            calculated;
        value           nonuniform List<scalar> 10(0 0 0 0 2.1684e-19 0 0 0 0 0);
    }
    rightWall
    {
        type            calculated;
        value           nonuniform List<scalar> 10(0 0 0 4.33681e-19 4.33681e-19 0 -4.33681e-19 -4.33681e-19 0 0);
    }
    topWall
    {
        type            calculated;
        value           uniform 0;
    }
    bottomWall
    {
        type            calculated;
        value           uniform 0;
    }
    frontAndBackPlanes
    {
        type            empty;
    }
}


// ************************************************************************* //
