/*--------------------------------*- C++ -*----------------------------------*\
| =========                 |                                                 |
| \\      /  F ield         | OpenFOAM: The Open Source CFD Toolbox           |
|  \\    /   O peration     | Version:  2506                                  |
|   \\  /    A nd           | Website:  www.openfoam.com                      |
|    \\/     M anipulation  |                                                 |
\*---------------------------------------------------------------------------*/
FoamFile
{
    version     2.0;
    format      ascii;
    arch        "LSB;label=32;scalar=64";
    class       volScalarField;
    location    "128";
    object      T;
}
// * * * * * * * * * * * * * * * * * * * * * * * * * * * * * * * * * * * * * //

dimensions      [0 0 0 1 0 0 0];

internalField   nonuniform List<scalar> 
200
(
273.167
273.197
273.219
273.234
273.244
273.251
273.257
273.261
273.265
273.269
273.274
273.278
273.282
273.287
273.293
273.303
273.327
273.389
273.539
273.866
273.178
273.226
273.26
273.28
273.291
273.297
273.3
273.302
273.304
273.306
273.309
273.313
273.316
273.319
273.322
273.328
273.349
273.408
273.564
273.891
273.192
273.266
273.317
273.347
273.361
273.367
273.368
273.367
273.366
273.367
273.367
273.368
273.369
273.368
273.367
273.37
273.388
273.449
273.608
273.923
273.207
273.307
273.376
273.415
273.433
273.438
273.438
273.435
273.432
273.43
273.428
273.426
273.423
273.418
273.413
273.413
273.43
273.495
273.656
273.953
273.221
273.347
273.434
273.48
273.5
273.504
273.501
273.496
273.491
273.488
273.484
273.48
273.474
273.466
273.458
273.456
273.476
273.546
273.709
273.979
273.236
273.389
273.49
273.541
273.56
273.562
273.557
273.552
273.547
273.544
273.541
273.536
273.529
273.519
273.511
273.513
273.539
273.612
273.763
274.001
273.253
273.433
273.544
273.596
273.613
273.615
273.613
273.611
273.61
273.61
273.608
273.605
273.6
273.593
273.589
273.595
273.623
273.691
273.821
274.023
273.275
273.478
273.595
273.647
273.667
273.674
273.678
273.683
273.687
273.691
273.694
273.696
273.695
273.694
273.694
273.703
273.727
273.783
273.886
274.047
273.298
273.519
273.639
273.696
273.723
273.738
273.749
273.759
273.768
273.777
273.786
273.793
273.801
273.807
273.813
273.824
273.845
273.886
273.959
274.074
273.315
273.54
273.66
273.72
273.751
273.77
273.785
273.799
273.812
273.826
273.84
273.854
273.869
273.884
273.9
273.918
273.94
273.974
274.024
274.099
)
;

boundaryField
{
    leftWall
    {
        type            fixedValue;
        value           uniform 273.15;
    }
    rightWall
    {
        type            customNeumannDirichletCoupledBoundary;
        refValue        nonuniform List<scalar> 10(274.13 274.132 274.133 274.135 274.137 274.139 274.141 274.142 274.144 274.145);
        refGradient     uniform 0;
        valueFraction   uniform 1;
        source          uniform 0;
        value           nonuniform List<scalar> 10(274.13 274.132 274.133 274.135 274.137 274.139 274.141 274.142 274.144 274.145);
        kappaMethod     fluidThermo;
    }
    topWall
    {
        type            zeroGradient;
    }
    bottomWall
    {
        type            zeroGradient;
    }
    frontAndBackPlanes
    {
        type            empty;
    }
}


// ************************************************************************* //
