/*--------------------------------*- C++ -*----------------------------------*\
| =========                 |                                                 |
| \\      /  F ield         | OpenFOAM: The Open Source CFD Toolbox           |
|  \\    /   O peration     | Version:  2506                                  |
|   \\  /    A nd           | Website:  www.openfoam.com                      |
|    \\/     M anipulation  |                                                 |
\*---------------------------------------------------------------------------*/
FoamFile
{
    version     2.0;
    format      ascii;
    arch        "LSB;label=32;scalar=64";
    class       volVectorField;
    location    "128.8";
    object      U;
}
// * * * * * * * * * * * * * * * * * * * * * * * * * * * * * * * * * * * * * //

dimensions      [0 1 -1 0 0 0 0];

internalField   nonuniform List<vector> 
200
(
(0.000529903 -0.001304 0)
(0.00262416 -0.00165469 0)
(0.00482561 -0.00121222 0)
(0.00656194 -0.000646466 0)
(0.00761659 -0.000212545 0)
(0.00813367 3.59665e-05 0)
(0.00833024 0.000123054 0)
(0.00839835 9.46451e-05 0)
(0.00847945 -6.73241e-06 0)
(0.00866872 -0.000152194 0)
(0.00902639 -0.000328558 0)
(0.00958837 -0.000533099 0)
(0.0103714 -0.000763032 0)
(0.0113624 -0.000997946 0)
(0.0124763 -0.00116914 0)
(0.0134613 -0.00110572 0)
(0.0137666 -0.000458295 0)
(0.0125239 0.00127854 0)
(0.00887902 0.00415566 0)
(0.00265425 0.00564007 0)
(0.000557058 -0.00512451 0)
(0.00354428 -0.00789187 0)
(0.00678656 -0.00701577 0)
(0.00955684 -0.00495233 0)
(0.0115158 -0.00294407 0)
(0.012737 -0.00148809 0)
(0.013443 -0.000675081 0)
(0.0138621 -0.000410918 0)
(0.0141745 -0.000545653 0)
(0.0145003 -0.000938877 0)
(0.0149049 -0.00148202 0)
(0.0154068 -0.00208814 0)
(0.0159748 -0.0026543 0)
(0.0165104 -0.00299603 0)
(0.0168109 -0.00275348 0)
(0.0165184 -0.00128873 0)
(0.0150604 0.00230773 0)
(0.0118278 0.00866326 0)
(0.00682001 0.0162511 0)
(0.00115081 0.0162215 0)
(0.000521439 -0.0089745 0)
(0.00331733 -0.0143023 0)
(0.00628378 -0.0131899 0)
(0.00882639 -0.00979865 0)
(0.0106607 -0.00632628 0)
(0.011856 -0.00368032 0)
(0.0125991 -0.00206001 0)
(0.0130696 -0.00133499 0)
(0.0133995 -0.001264 0)
(0.0136688 -0.00160466 0)
(0.0139133 -0.0021501 0)
(0.0141289 -0.00271352 0)
(0.0142675 -0.00307042 0)
(0.014221 -0.00286687 0)
(0.0137973 -0.00151701 0)
(0.0126905 0.0018302 0)
(0.0106288 0.00800352 0)
(0.00747677 0.0170346 0)
(0.003668 0.0256732 0)
(0.000414215 0.021811 0)
(0.000453188 -0.0124004 0)
(0.00274299 -0.0197416 0)
(0.00498636 -0.0182092 0)
(0.00678103 -0.0135929 0)
(0.00798824 -0.00890156 0)
(0.00873029 -0.00533195 0)
(0.00917932 -0.00311032 0)
(0.00946465 -0.00203142 0)
(0.00965902 -0.00175999 0)
(0.00979395 -0.00197296 0)
(0.00987599 -0.00239865 0)
(0.00989288 -0.00278607 0)
(0.00980714 -0.0028253 0)
(0.00953966 -0.00204245 0)
(0.00894661 0.000278567 0)
(0.00786165 0.0050037 0)
(0.00616269 0.0127952 0)
(0.00389285 0.0230836 0)
(0.00152079 0.0313705 0)
(4.80484e-05 0.0242605 0)
(0.000370574 -0.0151449 0)
(0.00199189 -0.0236522 0)
(0.00328999 -0.0214169 0)
(0.00411955 -0.0157117 0)
(0.00452916 -0.0101517 0)
(0.00469718 -0.00604917 0)
(0.00476861 -0.00354673 0)
(0.0048121 -0.00231882 0)
(0.0048411 -0.00194474 0)
(0.00484772 -0.00205893 0)
(0.00482205 -0.0023707 0)
(0.00475362 -0.00260535 0)
(0.00461959 -0.00240142 0)
(0.00436827 -0.00120297 0)
(0.00390099 0.00177851 0)
(0.00314379 0.00736765 0)
(0.00207625 0.0160181 0)
(0.000859312 0.0266261 0)
(-0.000103383 0.0339725 0)
(-0.000179184 0.0246916 0)
(0.000271057 -0.0170587 0)
(0.00104095 -0.0257187 0)
(0.00119358 -0.0225292 0)
(0.000930916 -0.0159864 0)
(0.000499925 -0.0100058 0)
(9.2832e-05 -0.00580196 0)
(-0.00021271 -0.0033408 0)
(-0.000425158 -0.00217219 0)
(-0.000582502 -0.00182209 0)
(-0.000713152 -0.00192649 0)
(-0.000833243 -0.00220746 0)
(-0.000954929 -0.00238288 0)
(-0.00109838 -0.00205351 0)
(-0.00129546 -0.000613242 0)
(-0.00158162 0.00273523 0)
(-0.0019242 0.00871136 0)
(-0.00220498 0.0174892 0)
(-0.0021817 0.0275689 0)
(-0.00160996 0.033653 0)
(-0.000363814 0.0234812 0)
(0.000138863 -0.0178032 0)
(-0.000278549 -0.025455 0)
(-0.00155812 -0.0211584 0)
(-0.00302939 -0.0142317 0)
(-0.00431958 -0.00842947 0)
(-0.00529777 -0.00460382 0)
(-0.00599016 -0.00248702 0)
(-0.00647813 -0.00155437 0)
(-0.0068362 -0.00134856 0)
(-0.00711346 -0.0015407 0)
(-0.00733987 -0.00187293 0)
(-0.00753615 -0.00206163 0)
(-0.00771496 -0.00170372 0)
(-0.00786351 -0.000226357 0)
(-0.00790454 0.00305724 0)
(-0.00767058 0.00870493 0)
(-0.00692037 0.0166946 0)
(-0.0054183 0.0254808 0)
(-0.0031926 0.0302885 0)
(-0.000577181 0.0206283 0)
(-0.000204628 -0.0167287 0)
(-0.00238158 -0.022008 0)
(-0.00531398 -0.0168641 0)
(-0.00802762 -0.0103366 0)
(-0.0100849 -0.00541511 0)
(-0.0114943 -0.00244787 0)
(-0.0124227 -0.000982088 0)
(-0.0130398 -0.000487049 0)
(-0.0134739 -0.000559372 0)
(-0.0138119 -0.000923249 0)
(-0.0141058 -0.00136135 0)
(-0.0143751 -0.00163216 0)
(-0.0145959 -0.0014033 0)
(-0.0146752 -0.000228932 0)
(-0.0144083 0.0024002 0)
(-0.0135143 0.00689909 0)
(-0.0116605 0.0131977 0)
(-0.00865182 0.0200325 0)
(-0.00478219 0.0236781 0)
(-0.000801995 0.0160647 0)
(-0.000853286 -0.0127144 0)
(-0.0053933 -0.0145286 0)
(-0.00990473 -0.00952155 0)
(-0.0133072 -0.00462527 0)
(-0.0153813 -0.00149049 0)
(-0.0164884 6.33963e-05 0)
(-0.0170424 0.00058493 0)
(-0.0173307 0.000527731 0)
(-0.01753 0.000176466 0)
(-0.0177435 -0.000300791 0)
(-0.0180208 -0.000781298 0)
(-0.0183598 -0.00113077 0)
(-0.0186911 -0.00116264 0)
(-0.0188561 -0.000620784 0)
(-0.0185714 0.000807321 0)
(-0.0174327 0.00342524 0)
(-0.0150086 0.00725004 0)
(-0.0110713 0.0115662 0)
(-0.00604933 0.0141324 0)
(-0.00101764 0.00990686 0)
(-0.00204105 -0.00435397 0)
(-0.00720223 -0.00375766 0)
(-0.010844 -0.0016957 0)
(-0.012717 -0.000260475 0)
(-0.013292 0.000405397 0)
(-0.0132099 0.000584746 0)
(-0.012894 0.00052996 0)
(-0.0125803 0.000384417 0)
(-0.0123857 0.000210607 0)
(-0.0123585 3.05377e-05 0)
(-0.0125111 -0.000145917 0)
(-0.0128253 -0.00030556 0)
(-0.0132431 -0.000422667 0)
(-0.0136402 -0.000448972 0)
(-0.0137978 -0.000302139 0)
(-0.0133899 0.000146732 0)
(-0.0119876 0.00100127 0)
(-0.00925056 0.00220652 0)
(-0.00539269 0.00325619 0)
(-0.00127538 0.00273788 0)
)
;

boundaryField
{
    leftWall
    {
        type            fixedValue;
        value           uniform (0 0 0);
    }
    rightWall
    {
        type            fixedValue;
        value           uniform (0 0 0);
    }
    topWall
    {
        type            fixedValue;
        value           uniform (0 0 0);
    }
    bottomWall
    {
        type            fixedValue;
        value           uniform (0 0 0);
    }
    frontAndBackPlanes
    {
        type            empty;
    }
}


// ************************************************************************* //
