/*--------------------------------*- C++ -*----------------------------------*\
| =========                 |                                                 |
| \\      /  F ield         | OpenFOAM: The Open Source CFD Toolbox           |
|  \\    /   O peration     | Version:  2506                                  |
|   \\  /    A nd           | Website:  www.openfoam.com                      |
|    \\/     M anipulation  |                                                 |
\*---------------------------------------------------------------------------*/
FoamFile
{
    version     2.0;
    format      ascii;
    arch        "LSB;label=32;scalar=64";
    class       volScalarField;
    location    "22.6";
    object      p;
}
// * * * * * * * * * * * * * * * * * * * * * * * * * * * * * * * * * * * * * //

dimensions      [1 -1 -2 0 0 0 0];

internalField   nonuniform List<scalar> 
200
(
100000
100000
100000
100000
100000
100000
100000
100000
100000
99999.9
99999.9
99999.8
99999.8
99999.7
99999.6
99999.5
99999.3
99999.2
99999
99998.9
99733.3
99733.3
99733.3
99733.4
99733.3
99733.3
99733.3
99733.3
99733.3
99733.2
99733.2
99733.1
99733.1
99733
99733
99732.9
99732.9
99732.8
99732.8
99732.8
99466.7
99466.7
99466.7
99466.7
99466.7
99466.7
99466.6
99466.6
99466.6
99466.5
99466.5
99466.4
99466.4
99466.4
99466.3
99466.3
99466.3
99466.3
99466.3
99466.4
99200
99200
99200
99200
99200
99200
99199.9
99199.9
99199.9
99199.8
99199.8
99199.7
99199.7
99199.7
99199.7
99199.6
99199.6
99199.7
99199.7
99199.7
98933.3
98933.3
98933.3
98933.3
98933.3
98933.3
98933.3
98933.2
98933.2
98933.1
98933.1
98933
98933
98933
98933
98933
98933
98933
98933
98933
98666.7
98666.7
98666.7
98666.7
98666.7
98666.6
98666.6
98666.5
98666.5
98666.4
98666.4
98666.4
98666.3
98666.3
98666.3
98666.3
98666.3
98666.4
98666.4
98666.4
98400.1
98400.1
98400.1
98400.1
98400.1
98400
98400
98399.9
98399.9
98399.8
98399.8
98399.8
98399.8
98399.8
98399.8
98399.8
98399.9
98399.9
98400
98400
98133.5
98133.5
98133.5
98133.5
98133.5
98133.5
98133.5
98133.4
98133.4
98133.4
98133.4
98133.4
98133.5
98133.5
98133.5
98133.6
98133.7
98133.8
98133.9
98133.9
97866.9
97866.9
97866.9
97866.9
97866.9
97867
97867
97867.1
97867.1
97867.2
97867.3
97867.4
97867.5
97867.6
97867.7
97867.9
97868
97868.2
97868.3
97868.3
97600.3
97600.2
97600.2
97600.2
97600.3
97600.4
97600.6
97600.7
97600.9
97601.2
97601.4
97601.6
97601.8
97602
97602.3
97602.6
97602.9
97603.1
97603.3
97603.3
)
;

boundaryField
{
    leftWall
    {
        type            zeroGradient;
    }
    rightWall
    {
        type            zeroGradient;
    }
    topWall
    {
        type            zeroGradient;
    }
    bottomWall
    {
        type            zeroGradient;
    }
    frontAndBackPlanes
    {
        type            empty;
    }
}


// ************************************************************************* //
