/*--------------------------------*- C++ -*----------------------------------*\
| =========                 |                                                 |
| \\      /  F ield         | OpenFOAM: The Open Source CFD Toolbox           |
|  \\    /   O peration     | Version:  2506                                  |
|   \\  /    A nd           | Website:  www.openfoam.com                      |
|    \\/     M anipulation  |                                                 |
\*---------------------------------------------------------------------------*/
FoamFile
{
    version     2.0;
    format      ascii;
    arch        "LSB;label=32;scalar=64";
    class       volScalarField;
    location    "22";
    object      p_rgh;
}
// * * * * * * * * * * * * * * * * * * * * * * * * * * * * * * * * * * * * * //

dimensions      [1 -1 -2 0 0 0 0];

internalField   nonuniform List<scalar> 
200
(
100000
100000
100000
100000
100000
100000
100000
100000
100000
100000
100000
99999.9
99999.9
99999.8
99999.7
99999.6
99999.4
99999.2
99998.8
99998.1
100000
100000
100000
100000
100000
100000
100000
100000
100000
100000
100000
99999.9
99999.9
99999.8
99999.8
99999.7
99999.6
99999.3
99998.6
99997
100000
100000
100000
100000
100000
100000
100000
100000
100000
100000
100000
100000
99999.9
99999.9
99999.8
99999.8
99999.6
99999.2
99997.9
99995.3
100000
100000
100000
100000
100000
100000
100000
100000
100000
100000
100000
100000
99999.9
99999.9
99999.9
99999.8
99999.5
99998.8
99997
99993.3
100000
100000
100000
100000
100000
100000
100000
100000
100000
100000
99999.9
99999.9
99999.9
99999.9
99999.8
99999.7
99999.3
99998.3
99995.8
99991
100000
100000
100000
100000
100000
100000
100000
100000
100000
99999.8
99999.7
99999.7
99999.7
99999.7
99999.7
99999.5
99998.9
99997.4
99994.2
99988.7
100000
100000
100001
100001
100001
100000
100000
99999.9
99999.5
99999.2
99999
99999
99999
99999.1
99999
99998.6
99997.8
99995.9
99992.3
99986.5
100000
100001
100001
100001
100001
100000
99999.9
99999.2
99998.6
99998
99997.6
99997.4
99997.3
99997.2
99997
99996.6
99995.6
99993.6
99990.1
99984.3
100000
100001
100001
100001
100001
100000
99999.3
99998.2
99997
99996
99995.2
99994.6
99994.2
99993.9
99993.6
99993.1
99992.2
99990.5
99987.4
99982.4
100000
100001
100001
100001
100001
100000
99999.4
99998
99996.5
99995
99993.6
99992.4
99991.5
99990.7
99990
99989.3
99988.4
99987
99984.7
99980.8
)
;

boundaryField
{
    leftWall
    {
        type            fixedFluxPressure;
        gradient        nonuniform List<scalar> 10(-0.0252843 -0.129271 -0.364655 -0.749171 -1.31378 -2.11006 -3.22477 -4.76227 -6.4538 -7.66195);
        value           nonuniform List<scalar> 10(100000 100000 100000 100000 100000 100000 100000 100000 100000 100000);
    }
    rightWall
    {
        type            fixedFluxPressure;
        gradient        nonuniform List<scalar> 10(-17.8949 -51.1141 -79.1992 -102.584 -120.479 -131.311 -138.822 -138.88 -126.645 -102.446);
        value           nonuniform List<scalar> 10(99997.7 99995.7 99993.3 99990.7 99988 99985.4 99983 99980.9 99979.3 99978.3);
    }
    topWall
    {
        type            fixedFluxPressure;
        gradient        uniform 0;
        value           nonuniform List<scalar> 
20
(
100000
100000
100000
100000
100000
100000
100000
100000
100000
100000
100000
99999.9
99999.9
99999.8
99999.7
99999.6
99999.4
99999.2
99998.8
99998.1
)
;
    }
    bottomWall
    {
        type            fixedFluxPressure;
        gradient        uniform 0;
        value           nonuniform List<scalar> 
20
(
100000
100001
100001
100001
100001
100000
99999.4
99998
99996.5
99995
99993.6
99992.4
99991.5
99990.7
99990
99989.3
99988.4
99987
99984.7
99980.8
)
;
    }
    frontAndBackPlanes
    {
        type            empty;
    }
}


// ************************************************************************* //
