/*--------------------------------*- C++ -*----------------------------------*\
| =========                 |                                                 |
| \\      /  F ield         | OpenFOAM: The Open Source CFD Toolbox           |
|  \\    /   O peration     | Version:  2506                                  |
|   \\  /    A nd           | Website:  www.openfoam.com                      |
|    \\/     M anipulation  |                                                 |
\*---------------------------------------------------------------------------*/
FoamFile
{
    version     2.0;
    format      ascii;
    arch        "LSB;label=32;scalar=64";
    class       surfaceScalarField;
    location    "22";
    object      phi;
}
// * * * * * * * * * * * * * * * * * * * * * * * * * * * * * * * * * * * * * //

dimensions      [1 0 -1 0 0 0 0];

oriented        oriented;

internalField   nonuniform List<scalar> 
370
(
-7.49539e-05
-3.30068e-05
1.62318e-05
-9.11886e-05
0.000173821
-0.000157595
0.000398087
-0.000224274
0.000678153
-0.000280077
0.000999352
-0.000321214
0.00134624
-0.0003469
0.00170441
-0.000358196
0.00206212
-0.000357725
0.00241127
-0.000349168
0.00274764
-0.00033639
0.00306988
-0.000322262
0.00337592
-0.000306051
0.00365603
-0.000280131
0.00387983
-0.000223813
0.00396614
-8.63178e-05
0.003777
0.000189147
0.00308692
0.000690112
0.00167928
0.00140768
0.00167931
5.28382e-05
-8.58422e-05
0.000248207
-0.00028655
0.00057631
-0.000485688
0.00101718
-0.000665134
0.00154711
-0.000809997
0.00213825
-0.000912351
0.00276101
-0.000969662
0.00338651
-0.00098369
0.00398831
-0.000959536
0.00454322
-0.000904074
0.0050303
-0.000823475
0.00542785
-0.000719814
0.00570839
-0.000586599
0.00583088
-0.000402629
0.00572997
-0.000122909
0.00531355
0.00033009
0.00444831
0.00105437
0.00303299
0.00210542
0.00122858
0.00321209
0.00290791
0.000103183
-0.000189017
0.000379924
-0.000563267
0.000803664
-0.000909397
0.0013437
-0.00120514
0.00196779
-0.00143406
0.00264144
-0.00158597
0.00332888
-0.00165707
0.00399517
-0.00164995
0.00460832
-0.00157264
0.00514016
-0.00143587
0.00556515
-0.00124843
0.00585658
-0.0010112
0.00598077
-0.00071076
0.00589092
-0.000312762
0.00552373
0.000244283
0.00481368
0.00104013
0.00371967
0.00214835
0.00229167
0.00353338
0.000817803
0.00468593
0.0037257
0.000120617
-0.000309619
0.000426299
-0.00086891
0.000873136
-0.00135618
0.00142358
-0.00175552
0.00204106
-0.00205148
0.00268755
-0.00223239
0.00332408
-0.00229351
0.00391365
-0.00223942
0.00442481
-0.00208367
0.00483348
-0.00184439
0.00512141
-0.00153621
0.00527104
-0.0011607
0.00525834
-0.000697944
0.00504765
-0.000102006
0.00459226
0.000699724
0.00385765
0.00177475
0.00284376
0.00316221
0.00164296
0.00473413
0.000528817
0.00580004
0.00425451
0.000116095
-0.000425694
0.000394321
-0.00114708
0.000787409
-0.0017492
0.00125919
-0.00222722
0.0017749
-0.00256708
0.00229722
-0.00275456
0.00278743
-0.0027835
0.00321064
-0.00266233
0.00354196
-0.00241462
0.00376924
-0.00207128
0.00389015
-0.00165675
0.00390429
-0.00117453
0.00380338
-0.000596785
0.00356508
0.000136479
0.00315713
0.00110779
0.00256146
0.00237047
0.00179534
0.00392833
0.000954595
0.00557485
0.000256855
0.00649777
0.00451137
7.92247e-05
-0.000504893
0.000255266
-0.00132306
0.000494364
-0.0019882
0.000773141
-0.00250588
0.00106639
-0.00286014
0.00134356
-0.00303139
0.00157202
-0.00301144
0.001726
-0.00281559
0.0017952
-0.00248299
0.00178677
-0.00206202
0.00171868
-0.00158793
0.00160813
-0.00106341
0.00146043
-0.000448666
0.00126339
0.000333842
0.00100645
0.00136495
0.000686204
0.00269086
0.000335169
0.00427944
3.93946e-05
0.00587068
-8.1757e-05
0.006619
0.00442962
-4.40467e-06
-0.000500458
-2.84174e-05
-0.00129897
-7.05041e-05
-0.001946
-0.000129722
-0.00244646
-0.000212956
-0.00277652
-0.000334814
-0.00290881
-0.000510211
-0.0028349
-0.000743177
-0.00258114
-0.00101971
-0.00220486
-0.00131045
-0.00176982
-0.00158134
-0.00131586
-0.00180515
-0.000838757
-0.00196634
-0.000286861
-0.00205125
0.000419262
-0.00204252
0.00135663
-0.00191805
0.00256669
-0.00163876
0.00400038
-0.00115977
0.00539187
-0.000508518
0.00596788
0.00392114
-0.000133752
-0.000366678
-0.000446917
-0.000985732
-0.000886775
-0.00150599
-0.00142106
-0.00191182
-0.00202691
-0.00216988
-0.00268528
-0.00224899
-0.00337429
-0.00214376
-0.00406334
-0.00188953
-0.00471356
-0.00155209
-0.00528423
-0.00119694
-0.00573907
-0.000859307
-0.00604634
-0.000530211
-0.00617313
-0.000159101
-0.0060728
0.000319696
-0.00569554
0.000979998
-0.00499413
0.00186579
-0.00393124
0.00293792
-0.00252676
0.00398772
-0.000991237
0.00443258
0.00292999
-0.000228824
-0.000137834
-0.000783863
-0.000430624
-0.00159089
-0.000698758
-0.00258942
-0.000912735
-0.00371194
-0.00104607
-0.00488246
-0.00107616
-0.00602297
-0.00099999
-0.00706476
-0.000843966
-0.00795837
-0.000654782
-0.00867623
-0.000475869
-0.00920432
-0.000328632
-0.00952512
-0.000207436
-0.00959777
-8.49403e-05
-0.00936197
8.50503e-05
-0.00872979
0.000348783
-0.00760825
0.00074505
-0.00593484
0.00126517
-0.00375941
0.00181281
-0.0014334
0.00210695
0.00149675
-0.000137825
-0.000568405
-0.001267
-0.00217921
-0.00322398
-0.0042977
-0.00529408
-0.0061337
-0.00678396
-0.00725563
-0.00758066
-0.00778514
-0.00786772
-0.00778081
-0.00743053
-0.00668426
-0.00541811
-0.00360452
-0.00149701
)
;

boundaryField
{
    leftWall
    {
        type            calculated;
        value           nonuniform List<scalar> 10(0 -8.47033e-22 1.69407e-21 -3.38813e-21 -6.77626e-21 0 0 0 0 0);
    }
    rightWall
    {
        type            calculated;
        value           nonuniform List<scalar> 10(1.0842e-19 0 0 0 0 8.67362e-19 0 0 0 0);
    }
    topWall
    {
        type            calculated;
        value           uniform 0;
    }
    bottomWall
    {
        type            calculated;
        value           uniform 0;
    }
    frontAndBackPlanes
    {
        type            empty;
    }
}


// ************************************************************************* //
