/*--------------------------------*- C++ -*----------------------------------*\
| =========                 |                                                 |
| \\      /  F ield         | OpenFOAM: The Open Source CFD Toolbox           |
|  \\    /   O peration     | Version:  2506                                  |
|   \\  /    A nd           | Website:  www.openfoam.com                      |
|    \\/     M anipulation  |                                                 |
\*---------------------------------------------------------------------------*/
FoamFile
{
    version     2.0;
    format      ascii;
    arch        "LSB;label=32;scalar=64";
    class       volScalarField;
    location    "22";
    object      T;
}
// * * * * * * * * * * * * * * * * * * * * * * * * * * * * * * * * * * * * * //

dimensions      [0 0 0 1 0 0 0];

internalField   nonuniform List<scalar> 
200
(
273.15
273.149
273.148
273.147
273.147
273.146
273.146
273.146
273.146
273.146
273.146
273.146
273.146
273.147
273.15
273.157
273.178
273.239
273.402
273.789
273.149
273.148
273.146
273.145
273.144
273.144
273.143
273.143
273.143
273.143
273.143
273.143
273.143
273.144
273.146
273.151
273.17
273.229
273.402
273.806
273.149
273.146
273.144
273.142
273.14
273.139
273.139
273.138
273.138
273.138
273.139
273.139
273.139
273.14
273.141
273.147
273.169
273.236
273.422
273.83
273.148
273.144
273.141
273.138
273.136
273.135
273.134
273.134
273.135
273.136
273.136
273.137
273.137
273.137
273.139
273.146
273.172
273.248
273.447
273.854
273.147
273.142
273.137
273.133
273.131
273.13
273.131
273.133
273.136
273.138
273.14
273.141
273.14
273.138
273.14
273.15
273.182
273.27
273.481
273.879
273.146
273.139
273.133
273.129
273.127
273.128
273.132
273.138
273.146
273.153
273.158
273.159
273.155
273.152
273.153
273.167
273.208
273.31
273.532
273.908
273.145
273.136
273.129
273.124
273.124
273.129
273.141
273.157
273.175
273.19
273.199
273.201
273.197
273.195
273.202
273.224
273.275
273.385
273.595
273.934
273.144
273.133
273.124
273.121
273.125
273.14
273.165
273.196
273.229
273.257
273.276
273.287
273.293
273.3
273.312
273.339
273.393
273.495
273.676
273.962
273.143
273.13
273.121
273.119
273.13
273.155
273.196
273.248
273.302
273.351
273.39
273.421
273.443
273.461
273.481
273.509
273.557
273.639
273.778
273.998
273.142
273.128
273.118
273.115
273.124
273.15
273.196
273.257
273.326
273.394
273.457
273.512
273.558
273.598
273.635
273.673
273.721
273.787
273.886
274.039
)
;

boundaryField
{
    leftWall
    {
        type            fixedValue;
        value           uniform 273.15;
    }
    rightWall
    {
        type            customNeumannDirichletCoupledBoundary;
        refValue        nonuniform List<scalar> 10(274.125 274.125 274.127 274.129 274.13 274.132 274.134 274.136 274.138 274.14);
        refGradient     uniform 0;
        valueFraction   uniform 1;
        source          uniform 0;
        value           nonuniform List<scalar> 10(274.125 274.125 274.127 274.129 274.13 274.132 274.134 274.136 274.138 274.14);
        kappaMethod     fluidThermo;
    }
    topWall
    {
        type            zeroGradient;
    }
    bottomWall
    {
        type            zeroGradient;
    }
    frontAndBackPlanes
    {
        type            empty;
    }
}


// ************************************************************************* //
