/*--------------------------------*- C++ -*----------------------------------*\
| =========                 |                                                 |
| \\      /  F ield         | OpenFOAM: The Open Source CFD Toolbox           |
|  \\    /   O peration     | Version:  2506                                  |
|   \\  /    A nd           | Website:  www.openfoam.com                      |
|    \\/     M anipulation  |                                                 |
\*---------------------------------------------------------------------------*/
FoamFile
{
    version     2.0;
    format      ascii;
    arch        "LSB;label=32;scalar=64";
    class       surfaceScalarField;
    location    "74.2";
    object      phi;
}
// * * * * * * * * * * * * * * * * * * * * * * * * * * * * * * * * * * * * * //

dimensions      [1 0 -1 0 0 0 0];

oriented        oriented;

internalField   nonuniform List<scalar> 
370
(
0.000131584
-0.000192934
0.000447528
-0.000315864
0.000753892
-0.000306248
0.00100002
-0.000245984
0.00118005
-0.000179879
0.0013104
-0.000130174
0.00141452
-0.000103949
0.00151503
-0.000100326
0.00163077
-0.000115558
0.00177669
-0.000145737
0.00196455
-0.000187659
0.00220277
-0.000238016
0.00249374
-0.000290764
0.00282659
-0.000332636
0.00316255
-0.000335739
0.00340921
-0.000246439
0.00337384
3.56008e-05
0.00283626
0.0005378
0.00156182
0.00127465
0.00156193
0.000283772
-0.000476662
0.000798014
-0.000829982
0.00132969
-0.000837742
0.00178319
-0.000699274
0.00213744
-0.000533913
0.00240747
-0.000399971
0.00262121
-0.000317453
0.00280711
-0.000285984
0.00298841
-0.000296625
0.00318124
-0.000338318
0.00339381
-0.000399982
0.00362488
-0.000468835
0.00385938
-0.000525015
0.00405958
-0.000532572
0.00415191
-0.0004278
0.00401653
-0.000110787
0.00350888
0.00054352
0.0024618
0.00158514
0.00100851
0.00272817
0.00257056
0.000327933
-0.00080453
0.000890313
-0.00139218
0.00145814
-0.00140532
0.0019358
-0.00117663
0.0023047
-0.000902508
0.00258123
-0.000676181
0.0027921
-0.000528
0.00296228
-0.000455856
0.00311032
-0.000444344
0.00324713
-0.000474813
0.00337587
-0.000528406
0.00349064
-0.000583286
0.00357266
-0.000606708
0.0035836
-0.000543187
0.00345922
-0.000303092
0.0031119
0.000236863
0.00247026
0.00118549
0.00153838
0.00251733
0.000535045
0.00373176
0.00310573
0.000324022
-0.00112847
0.000850111
-0.00191805
0.00134998
-0.00190488
0.00174407
-0.00157036
0.00202838
-0.00118644
0.00222666
-0.000874079
0.002366
-0.000666957
0.00246732
-0.000556794
0.0025437
-0.000520347
0.00260172
-0.000532465
0.00264281
-0.000569123
0.00266269
-0.000602786
0.00264804
-0.000591677
0.00257105
-0.00046582
0.00238654
-0.000118202
0.00204177
0.000582017
0.00151097
0.00171666
0.000844638
0.003184
0.000236016
0.00434066
0.00334187
0.000288905
-0.00141728
0.000710806
-0.0023397
0.00106524
-0.00225895
0.00130571
-0.00181042
0.00145055
-0.00133085
0.00153188
-0.000954989
0.00157519
-0.000709843
0.00159541
-0.000576601
0.00159974
-0.000524276
0.00159144
-0.000523758
0.00157174
-0.000549019
0.00153899
-0.000569624
0.00148525
-0.000537526
0.00139217
-0.000372326
0.00122876
4.56337e-05
0.000969983
0.000841217
0.000619961
0.00206708
0.000251376
0.00355295
1.12769e-05
0.00458105
0.00335327
0.00021442
-0.0016316
0.000453621
-0.00257862
0.000582691
-0.00238763
0.000609906
-0.0018372
0.000578625
-0.00129912
0.000523551
-0.000899475
0.000462202
-0.000648065
0.000400222
-0.000514199
0.000338498
-0.000462135
0.000277333
-0.000462179
0.000216809
-0.000488079
0.000154497
-0.000506893
8.28924e-05
-0.000465497
-9.83434e-06
-0.000279166
-0.00013057
0.000166816
-0.000267616
0.000978708
-0.000378925
0.00217882
-0.000387169
0.00356158
-0.000228102
0.00442227
0.00312528
7.0761e-05
-0.00170225
1.19408e-05
-0.00251949
-0.000175
-0.00220027
-0.000415107
-0.00159665
-0.000649246
-0.00106454
-0.000852727
-0.000695562
-0.0010235
-0.00047687
-0.00116799
-0.000369299
-0.0012929
-0.000336806
-0.00140304
-0.000351638
-0.0015023
-0.000388405
-0.001595
-0.000413781
-0.00168408
-0.000375999
-0.00176396
-0.000198858
-0.00180658
0.000209867
-0.00175591
0.000928475
-0.00153908
0.0019624
-0.00109829
0.00312115
-0.000477802
0.00380205
0.00264759
-0.000187555
-0.00151456
-0.000678361
-0.00202836
-0.00126196
-0.00161626
-0.00179228
-0.00106589
-0.0022191
-0.000637288
-0.00254625
-0.000368002
-0.00279679
-0.000225923
-0.00299519
-0.000170498
-0.00316095
-0.000170655
-0.00330774
-0.000204467
-0.00344377
-0.000251991
-0.00356969
-0.000287474
-0.00367263
-0.000272678
-0.00371692
-0.000154176
-0.00363732
0.000130652
-0.00334489
0.000636424
-0.00275375
0.00137162
-0.0018362
0.00220392
-0.000741071
0.00270716
0.00190662
-0.00058379
-0.000930621
-0.00158665
-0.00102515
-0.00251213
-0.000690364
-0.00320127
-0.00037631
-0.00366693
-0.000171214
-0.00397121
-6.3322e-05
-0.00417621
-2.05419e-05
-0.00433068
-1.56577e-05
-0.00446762
-3.33678e-05
-0.00460665
-6.50884e-05
-0.00475619
-0.000102118
-0.00490966
-0.000133687
-0.00503804
-0.000143979
-0.00508164
-0.000110269
-0.00495334
2.65786e-06
-0.0045261
0.00020949
-0.00369568
0.000541488
-0.00243779
0.000946286
-0.000964262
0.00123383
0.000942436
-0.000930461
-0.00195526
-0.00264521
-0.0030211
-0.00319192
-0.00325486
-0.00327504
-0.00329036
-0.0033234
-0.00338819
-0.00349002
-0.00362344
-0.00376717
-0.0038772
-0.00387431
-0.00366461
-0.00312292
-0.00217646
-0.000942494
)
;

boundaryField
{
    leftWall
    {
        type            calculated;
        value           nonuniform List<scalar> 10(0 0 0 5.42101e-20 0 0 0 0 0 0);
    }
    rightWall
    {
        type            calculated;
        value           nonuniform List<scalar> 10(0 -2.1684e-19 4.33681e-19 0 0 0 0 0 0 0);
    }
    topWall
    {
        type            calculated;
        value           uniform 0;
    }
    bottomWall
    {
        type            calculated;
        value           uniform 0;
    }
    frontAndBackPlanes
    {
        type            empty;
    }
}


// ************************************************************************* //
