/*--------------------------------*- C++ -*----------------------------------*\
| =========                 |                                                 |
| \\      /  F ield         | OpenFOAM: The Open Source CFD Toolbox           |
|  \\    /   O peration     | Version:  2506                                  |
|   \\  /    A nd           | Website:  www.openfoam.com                      |
|    \\/     M anipulation  |                                                 |
\*---------------------------------------------------------------------------*/
FoamFile
{
    version     2.0;
    format      ascii;
    arch        "LSB;label=32;scalar=64";
    class       volScalarField;
    location    "88.2";
    object      T;
}
// * * * * * * * * * * * * * * * * * * * * * * * * * * * * * * * * * * * * * //

dimensions      [0 0 0 1 0 0 0];

internalField   nonuniform List<scalar> 
200
(
273.158
273.174
273.185
273.193
273.198
273.201
273.203
273.205
273.206
273.208
273.21
273.212
273.215
273.218
273.222
273.231
273.254
273.316
273.475
273.831
273.166
273.194
273.214
273.227
273.233
273.236
273.238
273.238
273.239
273.24
273.242
273.244
273.246
273.247
273.249
273.253
273.273
273.334
273.499
273.859
273.176
273.224
273.258
273.278
273.288
273.292
273.293
273.292
273.291
273.291
273.291
273.292
273.291
273.29
273.287
273.289
273.307
273.371
273.542
273.893
273.188
273.257
273.306
273.335
273.349
273.353
273.353
273.351
273.349
273.347
273.345
273.343
273.339
273.334
273.327
273.326
273.344
273.414
273.59
273.924
273.201
273.292
273.357
273.393
273.41
273.414
273.412
273.409
273.405
273.402
273.399
273.394
273.388
273.378
273.368
273.366
273.387
273.463
273.643
273.953
273.214
273.329
273.408
273.451
273.469
273.472
273.469
273.465
273.462
273.459
273.456
273.451
273.442
273.43
273.42
273.421
273.449
273.53
273.701
273.976
273.228
273.368
273.461
273.508
273.525
273.529
273.528
273.527
273.527
273.527
273.526
273.522
273.516
273.507
273.502
273.508
273.538
273.615
273.764
274
273.247
273.411
273.512
273.561
273.582
273.592
273.598
273.603
273.609
273.614
273.618
273.62
273.619
273.618
273.618
273.626
273.654
273.717
273.837
274.027
273.268
273.45
273.557
273.612
273.641
273.659
273.673
273.686
273.698
273.709
273.72
273.729
273.738
273.746
273.753
273.765
273.788
273.835
273.921
274.058
273.282
273.471
273.579
273.638
273.672
273.695
273.714
273.732
273.749
273.766
273.783
273.801
273.818
273.837
273.855
273.875
273.901
273.939
273.999
274.088
)
;

boundaryField
{
    leftWall
    {
        type            fixedValue;
        value           uniform 273.15;
    }
    rightWall
    {
        type            customNeumannDirichletCoupledBoundary;
        refValue        nonuniform List<scalar> 10(274.128 274.129 274.131 274.133 274.135 274.137 274.139 274.141 274.142 274.144);
        refGradient     uniform 0;
        valueFraction   uniform 1;
        source          uniform 0;
        value           nonuniform List<scalar> 10(274.128 274.129 274.131 274.133 274.135 274.137 274.139 274.141 274.142 274.144);
        kappaMethod     fluidThermo;
    }
    topWall
    {
        type            zeroGradient;
    }
    bottomWall
    {
        type            zeroGradient;
    }
    frontAndBackPlanes
    {
        type            empty;
    }
}


// ************************************************************************* //
