/*--------------------------------*- C++ -*----------------------------------*\
| =========                 |                                                 |
| \\      /  F ield         | OpenFOAM: The Open Source CFD Toolbox           |
|  \\    /   O peration     | Version:  2506                                  |
|   \\  /    A nd           | Website:  www.openfoam.com                      |
|    \\/     M anipulation  |                                                 |
\*---------------------------------------------------------------------------*/
FoamFile
{
    version     2.0;
    format      ascii;
    arch        "LSB;label=32;scalar=64";
    class       volScalarField;
    location    "125.8";
    object      p_rgh;
}
// * * * * * * * * * * * * * * * * * * * * * * * * * * * * * * * * * * * * * //

dimensions      [1 -1 -2 0 0 0 0];

internalField   nonuniform List<scalar> 
200
(
100000
100000
99999.9
99999.9
99999.8
99999.7
99999.7
99999.6
99999.6
99999.5
99999.5
99999.4
99999.4
99999.3
99999.2
99999.1
99998.9
99998.7
99998.4
99997.8
100000
100000
99999.8
99999.7
99999.6
99999.6
99999.5
99999.5
99999.5
99999.4
99999.4
99999.3
99999.3
99999.3
99999.2
99999.1
99999
99998.7
99998.1
99996.8
100000
99999.9
99999.6
99999.3
99999.2
99999.2
99999.1
99999.1
99999.1
99999.1
99999.1
99999.1
99999
99999
99999
99999
99998.8
99998.4
99997.4
99995.3
100001
99999.8
99999.2
99998.8
99998.6
99998.5
99998.5
99998.6
99998.6
99998.6
99998.6
99998.6
99998.6
99998.7
99998.7
99998.7
99998.5
99997.9
99996.5
99993.7
100001
99999.7
99998.7
99998.1
99997.9
99997.8
99997.8
99997.9
99997.9
99998
99998
99998
99998.1
99998.2
99998.3
99998.3
99998.1
99997.2
99995.3
99992.1
100002
99999.5
99998.1
99997.3
99997
99997
99997
99997.1
99997.2
99997.2
99997.3
99997.3
99997.4
99997.6
99997.7
99997.6
99997.3
99996.2
99994
99990.5
100002
99999.3
99997.3
99996.4
99996.1
99996.1
99996.1
99996.1
99996.2
99996.2
99996.2
99996.2
99996.3
99996.4
99996.5
99996.4
99996
99994.8
99992.6
99989
100003
99998.9
99996.5
99995.5
99995.1
99994.9
99994.9
99994.8
99994.7
99994.6
99994.6
99994.6
99994.6
99994.6
99994.6
99994.5
99994
99993
99990.9
99987.7
100003
99998.4
99995.6
99994.4
99993.8
99993.5
99993.3
99993.1
99992.9
99992.8
99992.6
99992.5
99992.4
99992.2
99992.2
99992
99991.6
99990.7
99989.1
99986.4
100004
99998
99995.1
99993.8
99993.1
99992.7
99992.4
99992.1
99991.9
99991.6
99991.3
99991
99990.7
99990.4
99990.1
99989.8
99989.3
99988.6
99987.4
99985.5
)
;

boundaryField
{
    leftWall
    {
        type            fixedFluxPressure;
        gradient        nonuniform List<scalar> 10(0.88472 4.32983 10.9741 20.7961 33.6716 49.8811 70.5234 98.8084 133.034 165.364);
        value           nonuniform List<scalar> 10(100000 100000 100001 100001 100002 100003 100004 100005 100007 100008);
    }
    rightWall
    {
        type            fixedFluxPressure;
        gradient        nonuniform List<scalar> 10(-14.1883 -38.6689 -56.3977 -68.5839 -76.3781 -81.4815 -82.2776 -76.8505 -63.6347 -46.6884);
        value           nonuniform List<scalar> 10(99997.5 99995.8 99993.9 99992 99990.2 99988.5 99987 99985.7 99984.8 99984.3);
    }
    topWall
    {
        type            fixedFluxPressure;
        gradient        uniform 0;
        value           nonuniform List<scalar> 
20
(
100000
100000
99999.9
99999.9
99999.8
99999.7
99999.7
99999.6
99999.6
99999.5
99999.5
99999.4
99999.4
99999.3
99999.2
99999.1
99998.9
99998.7
99998.4
99997.8
)
;
    }
    bottomWall
    {
        type            fixedFluxPressure;
        gradient        uniform 0;
        value           nonuniform List<scalar> 
20
(
100004
99998
99995.1
99993.8
99993.1
99992.7
99992.4
99992.1
99991.9
99991.6
99991.3
99991
99990.7
99990.4
99990.1
99989.8
99989.3
99988.6
99987.4
99985.5
)
;
    }
    frontAndBackPlanes
    {
        type            empty;
    }
}


// ************************************************************************* //
