/*--------------------------------*- C++ -*----------------------------------*\
| =========                 |                                                 |
| \\      /  F ield         | OpenFOAM: The Open Source CFD Toolbox           |
|  \\    /   O peration     | Version:  2506                                  |
|   \\  /    A nd           | Website:  www.openfoam.com                      |
|    \\/     M anipulation  |                                                 |
\*---------------------------------------------------------------------------*/
FoamFile
{
    version     2.0;
    format      ascii;
    arch        "LSB;label=32;scalar=64";
    class       volScalarField;
    location    "24.6";
    object      p_rgh;
}
// * * * * * * * * * * * * * * * * * * * * * * * * * * * * * * * * * * * * * //

dimensions      [1 -1 -2 0 0 0 0];

internalField   nonuniform List<scalar> 
200
(
100000
100000
100000
100000
100000
100000
100000
100000
100000
100000
100000
99999.9
99999.9
99999.8
99999.7
99999.6
99999.4
99999.2
99998.8
99998.2
100000
100000
100000
100000
100000
100000
100000
100000
100000
100000
100000
99999.9
99999.9
99999.8
99999.8
99999.7
99999.6
99999.3
99998.6
99997
100000
100000
100000
100000
100000
100000
100000
100000
100000
100000
100000
100000
99999.9
99999.9
99999.8
99999.8
99999.6
99999.2
99998
99995.3
100000
100000
100000
100000
100000
100000
100000
100000
100000
100000
100000
99999.9
99999.9
99999.9
99999.9
99999.8
99999.6
99998.9
99997
99993.3
100000
100000
100000
100000
100000
100000
100000
100000
100000
99999.9
99999.9
99999.8
99999.8
99999.9
99999.8
99999.7
99999.4
99998.3
99995.8
99991.1
100000
100000
100000
100000
100000
100000
100000
99999.9
99999.7
99999.6
99999.5
99999.5
99999.6
99999.7
99999.7
99999.5
99998.9
99997.5
99994.2
99988.8
100000
100000
100001
100001
100000
100000
99999.7
99999.3
99999
99998.8
99998.7
99998.8
99998.9
99999
99998.9
99998.6
99997.8
99995.9
99992.3
99986.5
100001
100001
100001
100001
100000
99999.7
99999
99998.3
99997.7
99997.3
99997.2
99997.1
99997.1
99997.1
99996.9
99996.5
99995.5
99993.6
99990.1
99984.4
100001
100001
100001
100001
100000
99999.1
99997.9
99996.7
99995.7
99995
99994.4
99994.1
99993.8
99993.6
99993.4
99992.9
99992.1
99990.4
99987.4
99982.5
100001
100001
100001
100001
100000
99999.1
99997.7
99996.1
99994.7
99993.4
99992.3
99991.5
99990.7
99990.2
99989.6
99989
99988.2
99986.9
99984.6
99980.9
)
;

boundaryField
{
    leftWall
    {
        type            fixedFluxPressure;
        gradient        nonuniform List<scalar> 10(-0.0260951 -0.118722 -0.312998 -0.623932 -1.08673 -1.76084 -2.73692 -4.18636 -5.91234 -7.36532);
        value           nonuniform List<scalar> 10(100000 100000 100000 100000 100000 100000 100000 100000 100001 100001);
    }
    rightWall
    {
        type            fixedFluxPressure;
        gradient        nonuniform List<scalar> 10(-17.8601 -51.0386 -79.1157 -102.454 -120.157 -130.943 -138.173 -137.551 -124.024 -98.0202);
        value           nonuniform List<scalar> 10(99997.7 99995.7 99993.3 99990.7 99988.1 99985.5 99983.1 99981 99979.4 99978.5);
    }
    topWall
    {
        type            fixedFluxPressure;
        gradient        uniform 0;
        value           nonuniform List<scalar> 
20
(
100000
100000
100000
100000
100000
100000
100000
100000
100000
100000
100000
99999.9
99999.9
99999.8
99999.7
99999.6
99999.4
99999.2
99998.8
99998.2
)
;
    }
    bottomWall
    {
        type            fixedFluxPressure;
        gradient        uniform 0;
        value           nonuniform List<scalar> 
20
(
100001
100001
100001
100001
100000
99999.1
99997.7
99996.1
99994.7
99993.4
99992.3
99991.5
99990.7
99990.2
99989.6
99989
99988.2
99986.9
99984.6
99980.9
)
;
    }
    frontAndBackPlanes
    {
        type            empty;
    }
}


// ************************************************************************* //
