/*--------------------------------*- C++ -*----------------------------------*\
| =========                 |                                                 |
| \\      /  F ield         | OpenFOAM: The Open Source CFD Toolbox           |
|  \\    /   O peration     | Version:  2506                                  |
|   \\  /    A nd           | Website:  www.openfoam.com                      |
|    \\/     M anipulation  |                                                 |
\*---------------------------------------------------------------------------*/
FoamFile
{
    version     2.0;
    format      ascii;
    arch        "LSB;label=32;scalar=64";
    class       surfaceScalarField;
    location    "11.2";
    object      phi;
}
// * * * * * * * * * * * * * * * * * * * * * * * * * * * * * * * * * * * * * //

dimensions      [1 0 -1 0 0 0 0];

oriented        oriented;

internalField   nonuniform List<scalar> 
370
(
-8.77346e-05
-2.93312e-05
-2.9427e-05
-5.83158e-05
5.82294e-05
-8.76708e-05
0.00017922
-0.000121011
0.00033169
-0.000152493
0.000514378
-0.000182714
0.000727826
-0.000213475
0.000973958
-0.00024616
0.00125532
-0.000281389
0.00157404
-0.00031875
0.00193043
-0.000356421
0.00232096
-0.000390562
0.00273524
-0.000414298
0.00315019
-0.000414964
0.00351907
-0.000368866
0.00375007
-0.000230936
0.00366793
8.23008e-05
0.00305469
0.000613541
0.00168174
0.00137334
0.001682
6.31083e-06
-3.56372e-05
7.83779e-05
-0.000130373
0.000219001
-0.000228288
0.000420485
-0.000322496
0.000677199
-0.000409216
0.000984688
-0.000490216
0.00134005
-0.000568855
0.00174128
-0.000647409
0.00218557
-0.000725693
0.0026669
-0.000800096
0.00317297
-0.000862515
0.00368127
-0.000898878
0.00415377
-0.000886803
0.00453038
-0.000791584
0.00472104
-0.00055951
0.0046002
-0.000110049
0.00401864
0.000663967
0.00282455
0.00180782
0.00116657
0.00303153
0.00284871
2.25546e-05
-5.81775e-05
0.000105439
-0.000213226
0.000253684
-0.000376504
0.000461851
-0.000530645
0.000723597
-0.000670957
0.00103366
-0.000800283
0.00138794
-0.000923142
0.00178238
-0.00104186
0.00221096
-0.00115428
0.00266299
-0.00125214
0.00311983
-0.00131937
0.00355107
-0.00133013
0.00391054
-0.00124627
0.00413282
-0.00101385
0.00413228
-0.000558931
0.00380937
0.000212932
0.00308497
0.00138851
0.0019693
0.00292369
0.000718562
0.00428246
0.00356737
1.54826e-05
-7.36371e-05
7.86378e-05
-0.000276331
0.00019338
-0.000491197
0.000356631
-0.000693865
0.000563411
-0.000877722
0.000809499
-0.00104637
0.00109182
-0.00120547
0.00140737
-0.00135741
0.00175117
-0.00149808
0.00211348
-0.00161446
0.00247662
-0.00168251
0.0028115
-0.00166502
0.00307504
-0.0015098
0.00320955
-0.00114834
0.00314665
-0.000495965
0.00281974
0.000539991
0.00219395
0.00201456
0.00132193
0.00379604
0.000438078
0.00516665
0.00400565
-1.18226e-06
-7.24233e-05
1.97721e-05
-0.000297217
7.26704e-05
-0.000544029
0.000158034
-0.000779185
0.000273447
-0.000993112
0.000417181
-0.00119009
0.000589114
-0.0013774
0.0007899
-0.0015582
0.00101919
-0.00172737
0.00127244
-0.0018677
0.00153758
-0.00194764
0.0017915
-0.00191893
0.00199774
-0.00171601
0.00210769
-0.00125822
0.00206729
-0.000455429
0.00183066
0.000776895
0.00138455
0.00246112
0.000790295
0.00439093
0.000232949
0.00572465
0.004239
-2.40046e-05
-4.83804e-05
-5.67253e-05
-0.000264413
-8.18164e-05
-0.000518858
-9.51482e-05
-0.0007658
-9.6327e-05
-0.000991904
-8.39768e-05
-0.00120243
-5.42219e-05
-0.00140714
-1.15997e-06
-0.00161125
8.12186e-05
-0.00180974
0.000196609
-0.00198308
0.000342109
-0.00209312
0.000503991
-0.00208075
0.000655184
-0.00186709
0.000757278
-0.00136011
0.000769429
-0.000467273
0.000664076
0.000882777
0.000449896
0.00267616
0.000194929
0.00464705
1.79068e-05
0.00590287
0.00425762
-4.5151e-05
-3.18531e-06
-0.000130574
-0.000178894
-0.000236218
-0.000413122
-0.000357107
-0.000644849
-0.000491699
-0.000857276
-0.000636515
-0.00105759
-0.000784544
-0.0012591
-0.000925382
-0.0014704
-0.00104631
-0.0016888
-0.00113459
-0.00189475
-0.00118117
-0.00204645
-0.00118504
-0.00207667
-0.00115569
-0.00189604
-0.00110971
-0.00140546
-0.00106006
-0.000516058
-0.000998024
0.00082196
-0.000881152
0.00256096
-0.000647734
0.00441565
-0.000292336
0.00554942
0.0039663
-5.06848e-05
4.75488e-05
-0.000162941
-6.65288e-05
-0.000327046
-0.000248913
-0.000542295
-0.000429529
-0.000807822
-0.000591705
-0.00111988
-0.000745504
-0.00147186
-0.000907095
-0.00185386
-0.00108836
-0.0022519
-0.00129071
-0.00264744
-0.00149909
-0.00301828
-0.00167531
-0.0033399
-0.00175441
-0.0035848
-0.00164996
-0.00371743
-0.00127103
-0.00368618
-0.000544984
-0.00341621
0.000554731
-0.00282313
0.00197091
-0.00187986
0.00347549
-0.000749522
0.00442177
0.00321808
-1.54305e-05
6.30364e-05
-8.8974e-05
7.14169e-06
-0.00025201
-8.57537e-05
-0.000506781
-0.000174669
-0.000848581
-0.00024985
-0.00127353
-0.000320517
-0.00178155
-0.00039903
-0.00237484
-0.00049502
-0.00305303
-0.000612404
-0.00380629
-0.000745564
-0.00460768
-0.000873258
-0.00540488
-0.000955759
-0.00611319
-0.000939048
-0.00661092
-0.000769485
-0.00674247
-0.000408752
-0.00634248
0.000159608
-0.0052551
0.000888176
-0.00348775
0.00171232
-0.00137434
0.0023117
0.00184532
6.31044e-05
7.03984e-05
-1.52028e-05
-0.000189763
-0.000439542
-0.000760009
-0.00115899
-0.00165396
-0.00226626
-0.00301154
-0.00388403
-0.004838
-0.00577367
-0.00653806
-0.00694049
-0.00677428
-0.00588003
-0.00416263
-0.00184715
)
;

boundaryField
{
    leftWall
    {
        type            calculated;
        value           nonuniform List<scalar> 10(0 0 0 0 1.35525e-20 0 0 0 5.42101e-20 0);
    }
    rightWall
    {
        type            calculated;
        value           nonuniform List<scalar> 10(0 0 0 0 0 0 -8.67362e-19 0 8.67362e-19 0);
    }
    topWall
    {
        type            calculated;
        value           uniform 0;
    }
    bottomWall
    {
        type            calculated;
        value           uniform 0;
    }
    frontAndBackPlanes
    {
        type            empty;
    }
}


// ************************************************************************* //
