/*--------------------------------*- C++ -*----------------------------------*\
| =========                 |                                                 |
| \\      /  F ield         | OpenFOAM: The Open Source CFD Toolbox           |
|  \\    /   O peration     | Version:  2506                                  |
|   \\  /    A nd           | Website:  www.openfoam.com                      |
|    \\/     M anipulation  |                                                 |
\*---------------------------------------------------------------------------*/
FoamFile
{
    version     2.0;
    format      ascii;
    arch        "LSB;label=32;scalar=64";
    class       volScalarField;
    location    "11.2";
    object      T;
}
// * * * * * * * * * * * * * * * * * * * * * * * * * * * * * * * * * * * * * //

dimensions      [0 0 0 1 0 0 0];

internalField   nonuniform List<scalar> 
200
(
273.15
273.149
273.149
273.148
273.148
273.148
273.148
273.148
273.148
273.148
273.148
273.148
273.148
273.149
273.15
273.156
273.174
273.231
273.391
273.782
273.149
273.147
273.146
273.145
273.144
273.144
273.144
273.144
273.144
273.144
273.144
273.144
273.144
273.145
273.146
273.152
273.17
273.23
273.402
273.806
273.148
273.144
273.141
273.14
273.139
273.139
273.138
273.138
273.138
273.138
273.138
273.138
273.138
273.139
273.141
273.148
273.171
273.242
273.43
273.835
273.147
273.14
273.136
273.134
273.133
273.132
273.132
273.132
273.132
273.132
273.132
273.132
273.132
273.133
273.136
273.145
273.174
273.256
273.459
273.86
273.145
273.137
273.131
273.128
273.127
273.126
273.126
273.126
273.126
273.126
273.126
273.126
273.127
273.128
273.132
273.144
273.179
273.272
273.487
273.88
273.144
273.133
273.126
273.122
273.121
273.12
273.12
273.12
273.12
273.12
273.12
273.12
273.121
273.124
273.129
273.145
273.188
273.293
273.516
273.899
273.143
273.13
273.121
273.117
273.115
273.114
273.114
273.114
273.114
273.114
273.115
273.116
273.119
273.125
273.136
273.16
273.215
273.329
273.55
273.912
273.141
273.126
273.116
273.111
273.109
273.108
273.108
273.108
273.108
273.109
273.111
273.115
273.124
273.141
273.166
273.205
273.273
273.39
273.594
273.924
273.14
273.123
273.112
273.106
273.103
273.102
273.102
273.102
273.103
273.104
273.109
273.119
273.141
273.176
273.227
273.29
273.37
273.483
273.659
273.942
273.139
273.121
273.109
273.102
273.099
273.097
273.097
273.097
273.098
273.099
273.104
273.118
273.148
273.198
273.27
273.36
273.461
273.579
273.735
273.966
)
;

boundaryField
{
    leftWall
    {
        type            fixedValue;
        value           uniform 273.15;
    }
    rightWall
    {
        type            customNeumannDirichletCoupledBoundary;
        refValue        nonuniform List<scalar> 10(274.124 274.125 274.127 274.129 274.13 274.131 274.132 274.133 274.134 274.135);
        refGradient     uniform 0;
        valueFraction   uniform 1;
        source          uniform 0;
        value           nonuniform List<scalar> 10(274.124 274.125 274.127 274.129 274.13 274.131 274.132 274.133 274.134 274.135);
        kappaMethod     fluidThermo;
    }
    topWall
    {
        type            zeroGradient;
    }
    bottomWall
    {
        type            zeroGradient;
    }
    frontAndBackPlanes
    {
        type            empty;
    }
}


// ************************************************************************* //
