/*--------------------------------*- C++ -*----------------------------------*\
| =========                 |                                                 |
| \\      /  F ield         | OpenFOAM: The Open Source CFD Toolbox           |
|  \\    /   O peration     | Version:  2506                                  |
|   \\  /    A nd           | Website:  www.openfoam.com                      |
|    \\/     M anipulation  |                                                 |
\*---------------------------------------------------------------------------*/
FoamFile
{
    version     2.0;
    format      ascii;
    arch        "LSB;label=32;scalar=64";
    class       volScalarField;
    location    "80.2";
    object      p;
}
// * * * * * * * * * * * * * * * * * * * * * * * * * * * * * * * * * * * * * //

dimensions      [1 -1 -2 0 0 0 0];

internalField   nonuniform List<scalar> 
200
(
100000
100000
100000
100000
99999.9
99999.9
99999.9
99999.8
99999.8
99999.8
99999.8
99999.7
99999.7
99999.6
99999.5
99999.4
99999.3
99999.1
99999
99998.9
99733.4
99733.4
99733.4
99733.4
99733.4
99733.4
99733.3
99733.3
99733.3
99733.3
99733.3
99733.2
99733.2
99733.2
99733.1
99733.1
99733
99733
99733
99733
99467
99467
99467
99467
99467
99466.9
99466.9
99466.9
99466.9
99466.9
99466.9
99466.8
99466.8
99466.8
99466.8
99466.8
99466.8
99466.7
99466.8
99466.8
99200.7
99200.7
99200.7
99200.7
99200.7
99200.6
99200.6
99200.6
99200.6
99200.6
99200.6
99200.6
99200.6
99200.6
99200.6
99200.5
99200.5
99200.5
99200.6
99200.6
98934.6
98934.6
98934.6
98934.5
98934.5
98934.5
98934.5
98934.5
98934.5
98934.5
98934.5
98934.5
98934.5
98934.4
98934.4
98934.4
98934.4
98934.4
98934.5
98934.5
98668.6
98668.6
98668.6
98668.5
98668.5
98668.5
98668.5
98668.5
98668.5
98668.5
98668.5
98668.5
98668.5
98668.5
98668.4
98668.4
98668.4
98668.5
98668.5
98668.5
98402.8
98402.8
98402.7
98402.7
98402.7
98402.7
98402.7
98402.7
98402.7
98402.7
98402.7
98402.7
98402.7
98402.6
98402.6
98402.7
98402.7
98402.7
98402.7
98402.7
98137.1
98137.1
98137
98137
98137
98137
98137
98137.1
98137.1
98137.1
98137.1
98137.1
98137.1
98137.1
98137.1
98137.2
98137.2
98137.2
98137.3
98137.3
97871.5
97871.4
97871.4
97871.5
97871.5
97871.6
97871.6
97871.6
97871.7
97871.7
97871.7
97871.8
97871.8
97871.9
97871.9
97872
97872.1
97872.2
97872.2
97872.2
97605.7
97605.7
97605.8
97606
97606.1
97606.2
97606.3
97606.4
97606.5
97606.6
97606.6
97606.7
97606.8
97606.9
97607
97607.2
97607.3
97607.4
97607.5
97607.6
)
;

boundaryField
{
    leftWall
    {
        type            zeroGradient;
    }
    rightWall
    {
        type            zeroGradient;
    }
    topWall
    {
        type            zeroGradient;
    }
    bottomWall
    {
        type            zeroGradient;
    }
    frontAndBackPlanes
    {
        type            empty;
    }
}


// ************************************************************************* //
