/*--------------------------------*- C++ -*----------------------------------*\
| =========                 |                                                 |
| \\      /  F ield         | OpenFOAM: The Open Source CFD Toolbox           |
|  \\    /   O peration     | Version:  2506                                  |
|   \\  /    A nd           | Website:  www.openfoam.com                      |
|    \\/     M anipulation  |                                                 |
\*---------------------------------------------------------------------------*/
FoamFile
{
    version     2.0;
    format      ascii;
    arch        "LSB;label=32;scalar=64";
    class       surfaceScalarField;
    location    "80.2";
    object      phi;
}
// * * * * * * * * * * * * * * * * * * * * * * * * * * * * * * * * * * * * * //

dimensions      [1 0 -1 0 0 0 0];

oriented        oriented;

internalField   nonuniform List<scalar> 
370
(
0.000160662
-0.000217666
0.000508557
-0.000347813
0.000836983
-0.000328306
0.00109179
-0.000254657
0.00126973
-0.000177778
0.00139129
-0.000121389
0.00148351
-9.20409e-05
0.00157138
-8.76845e-05
0.00167499
-0.000103415
0.00180962
-0.000134428
0.0019868
-0.000176979
0.00221455
-0.000227541
0.00249501
-0.000280244
0.00281743
-0.000322198
0.00314365
-0.000325986
0.00338224
-0.00023836
0.00334321
3.92678e-05
0.00280717
0.000536272
0.0015434
0.00126398
0.00154351
0.000309851
-0.000527473
0.000860813
-0.000898652
0.00141988
-0.000887196
0.00188622
-0.000720797
0.00224033
-0.00053167
0.00250112
-0.000381948
0.00270044
-0.000291131
0.00286972
-0.000256729
0.00303403
-0.000267484
0.00321031
-0.000310471
0.00340702
-0.000373439
0.0036229
-0.000443176
0.00384299
-0.000500082
0.00403008
-0.00050902
0.00411176
-0.000407404
0.0039702
-9.65298e-05
0.00346232
0.000547421
0.00242534
0.00157351
0.000991619
0.00269794
0.00253525
0.000345432
-0.000872843
0.000930824
-0.00148388
0.00151396
-0.0014701
0.00199649
-0.00120304
0.0023616
-0.000896489
0.00262864
-0.000648689
0.00282701
-0.000489191
0.00298356
-0.000412987
0.00311794
-0.000401564
0.00324158
-0.000433803
0.00335776
-0.000489323
0.00346064
-0.00054575
0.00353161
-0.000570735
0.00353292
-0.000510022
0.00340174
-0.000275904
0.00305268
0.000252849
0.00241732
0.00118309
0.00150093
0.00249019
0.000519356
0.00367977
0.00305472
0.000332536
-0.0012053
0.00086584
-0.00201697
0.00136581
-0.00196977
0.00175387
-0.00159077
0.00202889
-0.00117115
0.00221703
-0.000836468
0.00234676
-0.000618568
0.00243953
-0.000505403
0.00250841
-0.00047009
0.00255974
-0.000484793
0.00259472
-0.000523944
0.00260888
-0.000559566
0.00258898
-0.000550476
0.00250764
-0.000428333
0.00232088
-8.87861e-05
0.00197886
0.000595234
0.00145799
0.00170431
0.000809281
0.00313923
0.000222215
0.0042671
0.00327706
0.000289351
-0.00149457
0.000704485
-0.00243187
0.00104603
-0.00231099
0.00127217
-0.00181654
0.00140477
-0.00130336
0.00147743
-0.000908737
0.00151553
-0.000656287
0.00153316
-0.000522652
0.0015365
-0.00047306
0.00152799
-0.000475906
0.00150833
-0.000503913
0.0014756
-0.000526461
0.0014218
-0.000496297
0.00132875
-0.000334895
0.0011672
7.31514e-05
0.000914077
0.000848749
0.000575207
0.00204355
0.000223328
0.00349145
1.48357e-06
0.00448921
0.00327866
0.000208718
-0.00170319
0.000430676
-0.00265357
0.000538999
-0.00241895
0.00054921
-0.00182635
0.000507518
-0.00126127
0.000448328
-0.000849149
0.000387438
-0.000595008
0.000328605
-0.000463436
0.000271248
-0.000415325
0.000214742
-0.000419023
0.000158677
-0.00044747
0.000100494
-0.000467897
3.29793e-05
-0.000428396
-5.49034e-05
-0.000246619
-0.000170028
0.000188683
-0.000299689
0.000978819
-0.000401621
0.00214588
-0.000399356
0.00348954
-0.000231372
0.00432149
0.00304739
6.00483e-05
-0.00176313
-2.0472e-05
-0.00257277
-0.000228571
-0.00221048
-0.000481917
-0.00157261
-0.000720445
-0.00102234
-0.000921591
-0.000647614
-0.00108602
-0.000430198
-0.00122232
-0.000326766
-0.00133857
-0.000298695
-0.00144029
-0.000316936
-0.00153162
-0.000355771
-0.00161676
-0.000382388
-0.00169831
-0.000346463
-0.00177035
-0.000174193
-0.00180448
0.000223214
-0.00174699
0.000921715
-0.0015267
0.00192597
-0.00108693
0.0030501
-0.000471797
0.00370661
0.00257569
-0.000201102
-0.00156191
-0.000714105
-0.00205946
-0.00131251
-0.0016117
-0.00184702
-0.0010377
-0.00226922
-0.000599746
-0.00258628
-0.000330188
-0.00282409
-0.00019202
-0.0030091
-0.00014139
-0.00316191
-0.00014554
-0.00329645
-0.000182043
-0.0034209
-0.000230974
-0.00353575
-0.000267192
-0.00362814
-0.000253723
-0.00366298
-0.000139002
-0.00357676
0.000137341
-0.00328335
0.000628649
-0.00269932
0.00134227
-0.00179785
0.00214893
-0.000724789
0.00263377
0.00185099
-0.000602335
-0.000959442
-0.00162519
-0.0010363
-0.00255535
-0.000681164
-0.00323555
-0.000357123
-0.00368475
-0.000150167
-0.00396987
-4.47032e-05
-0.00415533
-6.21964e-06
-0.00429227
-4.11608e-06
-0.00441429
-2.32015e-05
-0.00453973
-5.62971e-05
-0.00467645
-9.39618e-05
-0.00481769
-0.000125652
-0.00493499
-0.000136141
-0.00497018
-0.000103532
-0.00483794
5.37191e-06
-0.00441594
0.000206923
-0.00360236
0.000528945
-0.00237409
0.000920896
-0.000938169
0.00119802
0.000912897
-0.000959296
-0.00199528
-0.00267607
-0.00303281
-0.00318261
-0.00322697
-0.00323286
-0.00323667
-0.00325958
-0.00331561
-0.00340931
-0.00353472
-0.00367064
-0.00377395
-0.00376838
-0.00356126
-0.00303214
-0.00211108
-0.000912949
)
;

boundaryField
{
    leftWall
    {
        type            calculated;
        value           nonuniform List<scalar> 10(0 0 0 0 -1.0842e-19 0 0 0 0 0);
    }
    rightWall
    {
        type            calculated;
        value           nonuniform List<scalar> 10(0 0 -4.33681e-19 0 -4.33681e-19 0 0 0 0 0);
    }
    topWall
    {
        type            calculated;
        value           uniform 0;
    }
    bottomWall
    {
        type            calculated;
        value           uniform 0;
    }
    frontAndBackPlanes
    {
        type            empty;
    }
}


// ************************************************************************* //
