/*--------------------------------*- C++ -*----------------------------------*\
| =========                 |                                                 |
| \\      /  F ield         | OpenFOAM: The Open Source CFD Toolbox           |
|  \\    /   O peration     | Version:  2506                                  |
|   \\  /    A nd           | Website:  www.openfoam.com                      |
|    \\/     M anipulation  |                                                 |
\*---------------------------------------------------------------------------*/
FoamFile
{
    version     2.0;
    format      ascii;
    arch        "LSB;label=32;scalar=64";
    class       volScalarField;
    location    "1.4";
    object      T;
}
// * * * * * * * * * * * * * * * * * * * * * * * * * * * * * * * * * * * * * //

dimensions      [0 0 0 1 0 0 0];

internalField   nonuniform List<scalar> 
200
(
273.15
273.15
273.15
273.15
273.15
273.15
273.15
273.15
273.15
273.15
273.15
273.15
273.15
273.15
273.15
273.15
273.151
273.152
273.174
273.394
273.147
273.145
273.145
273.145
273.145
273.145
273.145
273.145
273.145
273.145
273.145
273.145
273.145
273.145
273.145
273.145
273.145
273.147
273.169
273.392
273.143
273.139
273.139
273.139
273.139
273.139
273.139
273.139
273.139
273.139
273.139
273.139
273.139
273.139
273.139
273.139
273.139
273.141
273.163
273.389
273.139
273.133
273.133
273.132
273.132
273.132
273.132
273.132
273.132
273.132
273.132
273.132
273.132
273.132
273.132
273.132
273.133
273.134
273.157
273.386
273.135
273.127
273.126
273.126
273.126
273.126
273.126
273.126
273.126
273.126
273.126
273.126
273.126
273.126
273.126
273.126
273.126
273.128
273.151
273.381
273.131
273.121
273.12
273.12
273.12
273.12
273.12
273.12
273.12
273.12
273.12
273.12
273.12
273.12
273.12
273.12
273.12
273.122
273.145
273.377
273.126
273.115
273.114
273.113
273.113
273.113
273.113
273.113
273.113
273.113
273.113
273.113
273.113
273.113
273.113
273.113
273.114
273.115
273.139
273.373
273.122
273.109
273.107
273.107
273.107
273.107
273.107
273.107
273.107
273.107
273.107
273.107
273.107
273.107
273.107
273.107
273.107
273.109
273.134
273.369
273.118
273.103
273.101
273.101
273.101
273.101
273.101
273.101
273.101
273.101
273.101
273.101
273.101
273.101
273.101
273.101
273.101
273.103
273.129
273.365
273.114
273.097
273.094
273.094
273.094
273.094
273.094
273.094
273.094
273.094
273.094
273.094
273.094
273.094
273.094
273.094
273.094
273.097
273.125
273.361
)
;

boundaryField
{
    leftWall
    {
        type            fixedValue;
        value           uniform 273.15;
    }
    rightWall
    {
        type            customNeumannDirichletCoupledBoundary;
        refValue        nonuniform List<scalar> 10(274.056 274.056 274.056 274.056 274.056 274.055 274.055 274.055 274.054 274.054);
        refGradient     uniform 0;
        valueFraction   uniform 1;
        source          uniform 0;
        value           nonuniform List<scalar> 10(274.056 274.056 274.056 274.056 274.056 274.055 274.055 274.055 274.054 274.054);
        kappaMethod     fluidThermo;
    }
    topWall
    {
        type            zeroGradient;
    }
    bottomWall
    {
        type            zeroGradient;
    }
    frontAndBackPlanes
    {
        type            empty;
    }
}


// ************************************************************************* //
