/*--------------------------------*- C++ -*----------------------------------*\
| =========                 |                                                 |
| \\      /  F ield         | OpenFOAM: The Open Source CFD Toolbox           |
|  \\    /   O peration     | Version:  2506                                  |
|   \\  /    A nd           | Website:  www.openfoam.com                      |
|    \\/     M anipulation  |                                                 |
\*---------------------------------------------------------------------------*/
FoamFile
{
    version     2.0;
    format      ascii;
    arch        "LSB;label=32;scalar=64";
    class       surfaceScalarField;
    location    "13";
    object      phi;
}
// * * * * * * * * * * * * * * * * * * * * * * * * * * * * * * * * * * * * * //

dimensions      [1 0 -1 0 0 0 0];

oriented        oriented;

internalField   nonuniform List<scalar> 
370
(
-8.46202e-05
-2.85867e-05
-2.33481e-05
-6.12792e-05
7.37921e-05
-9.71527e-05
0.000211069
-0.000137295
0.000386283
-0.000175235
0.000597071
-0.000210813
0.000842291
-0.000245246
0.0011217
-0.000279435
0.00143519
-0.00031352
0.0017818
-0.000346642
0.00215848
-0.0003767
0.00255844
-0.00039999
0.00296887
-0.000410455
0.00336555
-0.000396689
0.00370243
-0.000336877
0.00388903
-0.000186554
0.0037607
0.000128425
0.00309997
0.000660896
0.00169236
0.00140782
0.0016925
1.27191e-05
-4.13021e-05
0.000101879
-0.000150431
0.000269835
-0.000265103
0.000509428
-0.000376888
0.000814293
-0.000480108
0.00117821
-0.000574744
0.00159561
-0.000662663
0.00206095
-0.000744786
0.00256695
-0.000819539
0.00310225
-0.000881962
0.00364854
-0.000923004
0.00417718
-0.000928647
0.00464488
-0.000878174
0.00498861
-0.00074042
0.00511841
-0.000466675
0.00491667
1.52023e-05
0.00423247
0.000812648
0.0029397
0.00195371
0.00120307
0.00314448
0.00289558
3.27797e-05
-7.40702e-05
0.000140248
-0.000257873
0.00032528
-0.000450107
0.00058166
-0.00063325
0.000902059
-0.000800498
0.00127952
-0.000952209
0.00170745
-0.00109059
0.00217829
-0.00121564
0.00268135
-0.00132261
0.00319988
-0.0014005
0.00370795
-0.00143109
0.00416737
-0.00138808
0.00452492
-0.00123572
0.0047105
-0.000925994
0.00463773
-0.000393887
0.00420843
0.000444516
0.0033603
0.0016608
0.00211916
0.00319482
0.000766218
0.00449735
0.00366173
2.6441e-05
-0.000100492
0.000115164
-0.000346552
0.000267133
-0.000602029
0.000478323
-0.000844405
0.000743119
-0.00106528
0.00105635
-0.00126544
0.00141337
-0.00144761
0.00180846
-0.00161074
0.00223227
-0.00174642
0.00266856
-0.00183679
0.00309103
-0.00185357
0.0034609
-0.00175794
0.00372622
-0.00150103
0.00382374
-0.00102348
0.00368422
-0.000254326
0.00324547
0.000883334
0.00248497
0.00242135
0.00147676
0.00420303
0.000484381
0.00548965
0.00414606
7.86263e-06
-0.000108329
4.90429e-05
-0.000387672
0.000130956
-0.000683879
0.000253998
-0.000967401
0.000416212
-0.00122746
0.000616301
-0.00146551
0.000854326
-0.00168563
0.00112945
-0.00188586
0.00143748
-0.00205445
0.001767
-0.00216631
0.00209566
-0.00218221
0.00238815
-0.00205039
0.00259731
-0.00171014
0.00266905
-0.00109513
0.0025509
-0.000136062
0.00220297
0.00123142
0.00162737
0.00299714
0.00090896
0.00492159
0.000261804
0.00613689
0.00440794
-1.9667e-05
-8.86303e-05
-4.4149e-05
-0.000363118
-5.74663e-05
-0.000670486
-5.4028e-05
-0.000970783
-3.13688e-05
-0.00125009
1.41202e-05
-0.00151098
8.78528e-05
-0.00175935
0.000196434
-0.00199442
0.000343516
-0.00220151
0.000525582
-0.00234833
0.000727743
-0.00238428
0.000921881
-0.00224437
0.00106927
-0.00185729
0.0011279
-0.00115347
0.00106348
-7.13409e-05
0.000860571
0.00143475
0.000549324
0.0033089
0.000220479
0.00525097
1.12838e-05
0.00634656
0.00441954
-4.85633e-05
-4.00313e-05
-0.000143974
-0.000267626
-0.000263596
-0.000550778
-0.000399542
-0.000834774
-0.00054707
-0.00110252
-0.000699109
-0.00135891
-0.000844846
-0.00161359
-0.000971279
-0.00186796
-0.00106615
-0.00210657
-0.00112252
-0.00229181
-0.00114293
-0.00236356
-0.00114013
-0.00224662
-0.00113225
-0.00186441
-0.00113328
-0.00115155
-0.00114302
-6.0678e-05
-0.00112654
0.00141939
-0.00102265
0.00320626
-0.000763084
0.00499268
-0.000349027
0.00593359
0.00407107
-6.2777e-05
2.27847e-05
-0.00020486
-0.000125454
-0.000411816
-0.000343728
-0.00068042
-0.000566099
-0.00100718
-0.000775702
-0.001385
-0.000981063
-0.0018027
-0.00119584
-0.00224538
-0.0014252
-0.00269523
-0.00165654
-0.00313337
-0.00185324
-0.00354103
-0.00195504
-0.00389734
-0.00188885
-0.00417251
-0.00158719
-0.00431939
-0.00100229
-0.00427016
-0.000107444
-0.003926
0.00107772
-0.00321029
0.00249295
-0.00211657
0.00390114
-0.000839306
0.00465809
0.0032326
-3.06433e-05
5.34718e-05
-0.000142014
-1.39803e-05
-0.000363773
-0.000121859
-0.000697981
-0.000231806
-0.0011417
-0.000331918
-0.00169134
-0.000431373
-0.00234496
-0.000542139
-0.00309939
-0.000670621
-0.00394367
-0.000811889
-0.00485187
-0.00094414
-0.00577614
-0.00102897
-0.0066415
-0.00102052
-0.00734317
-0.000881453
-0.00774732
-0.000593453
-0.00770199
-0.000148105
-0.00705546
0.000435332
-0.00571133
0.00115242
-0.00371356
0.00190643
-0.00143706
0.00238394
0.00179664
5.35245e-05
3.96673e-05
-8.20629e-05
-0.000313766
-0.000645611
-0.00107693
-0.001619
-0.00228948
-0.003101
-0.00404415
-0.005071
-0.00608782
-0.00696403
-0.0075513
-0.00769312
-0.00725214
-0.00609495
-0.0041847
-0.00179798
)
;

boundaryField
{
    leftWall
    {
        type            calculated;
        value           nonuniform List<scalar> 10(0 0 0 0 0 0 2.71051e-20 0 0 0);
    }
    rightWall
    {
        type            calculated;
        value           uniform 0;
    }
    topWall
    {
        type            calculated;
        value           uniform 0;
    }
    bottomWall
    {
        type            calculated;
        value           uniform 0;
    }
    frontAndBackPlanes
    {
        type            empty;
    }
}


// ************************************************************************* //
