/*--------------------------------*- C++ -*----------------------------------*\
| =========                 |                                                 |
| \\      /  F ield         | OpenFOAM: The Open Source CFD Toolbox           |
|  \\    /   O peration     | Version:  2506                                  |
|   \\  /    A nd           | Website:  www.openfoam.com                      |
|    \\/     M anipulation  |                                                 |
\*---------------------------------------------------------------------------*/
FoamFile
{
    version     2.0;
    format      ascii;
    arch        "LSB;label=32;scalar=64";
    class       volScalarField;
    location    "13";
    object      T;
}
// * * * * * * * * * * * * * * * * * * * * * * * * * * * * * * * * * * * * * //

dimensions      [0 0 0 1 0 0 0];

internalField   nonuniform List<scalar> 
200
(
273.15
273.149
273.148
273.148
273.148
273.148
273.148
273.148
273.148
273.148
273.148
273.148
273.148
273.148
273.15
273.157
273.176
273.234
273.395
273.784
273.149
273.147
273.146
273.145
273.144
273.144
273.144
273.144
273.144
273.144
273.144
273.144
273.144
273.145
273.146
273.152
273.171
273.231
273.404
273.807
273.148
273.144
273.142
273.14
273.139
273.139
273.138
273.138
273.138
273.138
273.138
273.138
273.138
273.139
273.142
273.149
273.172
273.243
273.431
273.835
273.147
273.141
273.137
273.134
273.133
273.133
273.132
273.132
273.132
273.132
273.132
273.132
273.133
273.134
273.137
273.147
273.177
273.258
273.46
273.861
273.146
273.138
273.132
273.129
273.127
273.127
273.126
273.126
273.126
273.126
273.126
273.127
273.127
273.129
273.133
273.147
273.184
273.278
273.491
273.884
273.144
273.135
273.127
273.123
273.121
273.12
273.12
273.12
273.12
273.12
273.121
273.122
273.124
273.127
273.134
273.152
273.198
273.305
273.528
273.906
273.143
273.131
273.123
273.118
273.115
273.114
273.114
273.114
273.115
273.115
273.117
273.121
273.128
273.137
273.15
273.178
273.237
273.353
273.572
273.923
273.142
273.128
273.118
273.112
273.109
273.109
273.108
273.109
273.11
273.113
273.119
273.131
273.149
273.173
273.202
273.245
273.313
273.429
273.627
273.94
273.141
273.125
273.113
273.107
273.104
273.103
273.103
273.104
273.106
273.112
273.127
273.152
273.192
273.242
273.298
273.358
273.432
273.537
273.701
273.962
273.14
273.123
273.111
273.103
273.1
273.098
273.098
273.099
273.101
273.108
273.125
273.159
273.213
273.285
273.367
273.452
273.542
273.646
273.783
273.989
)
;

boundaryField
{
    leftWall
    {
        type            fixedValue;
        value           uniform 273.15;
    }
    rightWall
    {
        type            customNeumannDirichletCoupledBoundary;
        refValue        nonuniform List<scalar> 10(274.124 274.125 274.127 274.129 274.13 274.132 274.133 274.134 274.136 274.137);
        refGradient     uniform 0;
        valueFraction   uniform 1;
        source          uniform 0;
        value           nonuniform List<scalar> 10(274.124 274.125 274.127 274.129 274.13 274.132 274.133 274.134 274.136 274.137);
        kappaMethod     fluidThermo;
    }
    topWall
    {
        type            zeroGradient;
    }
    bottomWall
    {
        type            zeroGradient;
    }
    frontAndBackPlanes
    {
        type            empty;
    }
}


// ************************************************************************* //
