/*--------------------------------*- C++ -*----------------------------------*\
| =========                 |                                                 |
| \\      /  F ield         | OpenFOAM: The Open Source CFD Toolbox           |
|  \\    /   O peration     | Version:  2506                                  |
|   \\  /    A nd           | Website:  www.openfoam.com                      |
|    \\/     M anipulation  |                                                 |
\*---------------------------------------------------------------------------*/
FoamFile
{
    version     2.0;
    format      ascii;
    arch        "LSB;label=32;scalar=64";
    class       volVectorField;
    location    "13";
    object      U;
}
// * * * * * * * * * * * * * * * * * * * * * * * * * * * * * * * * * * * * * //

dimensions      [0 1 -1 0 0 0 0];

internalField   nonuniform List<vector> 
200
(
(-0.000252659 -0.000118952 0)
(-0.000289489 -0.000189002 0)
(4.1413e-05 -0.000217615 0)
(0.000565022 -0.000290232 0)
(0.00121407 -0.000368842 0)
(0.00201689 -0.00044456 0)
(0.00296745 -0.000522543 0)
(0.00406118 -0.000607526 0)
(0.00529758 -0.000702718 0)
(0.00667559 -0.000809929 0)
(0.00818833 -0.000929227 0)
(0.00981758 -0.00105781 0)
(0.0115269 -0.0011871 0)
(0.0132483 -0.00129523 0)
(0.0148504 -0.00132648 0)
(0.0160589 -0.00113839 0)
(0.0163304 -0.000393777 0)
(0.0147919 0.00149246 0)
(0.0105183 0.00473459 0)
(0.00315142 0.00664426 0)
(-2.17003e-05 -0.000286553 0)
(0.000154871 -0.000858265 0)
(0.000701423 -0.00145337 0)
(0.00155837 -0.00206349 0)
(0.00269821 -0.00263512 0)
(0.00409664 -0.00316789 0)
(0.00572948 -0.00367543 0)
(0.00757444 -0.00416775 0)
(0.00960668 -0.00464281 0)
(0.0117899 -0.00508182 0)
(0.0140651 -0.00544507 0)
(0.016338 -0.00566579 0)
(0.0184626 -0.0056371 0)
(0.0202236 -0.00518317 0)
(0.0213148 -0.00399944 0)
(0.0213084 -0.0015482 0)
(0.0195681 0.00304685 0)
(0.0154425 0.0105029 0)
(0.0089977 0.0193775 0)
(0.00156488 0.0196698 0)
(1.78915e-05 -0.000471409 0)
(0.00028955 -0.00169071 0)
(0.000896882 -0.00299238 0)
(0.00182266 -0.00424035 0)
(0.00303147 -0.00538348 0)
(0.00449187 -0.00642443 0)
(0.00617628 -0.00738077 0)
(0.00805694 -0.00825723 0)
(0.0100982 -0.00902907 0)
(0.0122458 -0.00963206 0)
(0.0144137 -0.00995486 0)
(0.0164711 -0.00983042 0)
(0.0182304 -0.00902063 0)
(0.0194384 -0.00718512 0)
(0.0197708 -0.0038275 0)
(0.0188072 0.00176059 0)
(0.016167 0.0103123 0)
(0.0117121 0.0217527 0)
(0.00605549 0.032454 0)
(0.000813116 0.0279067 0)
(1.17005e-05 -0.000749942 0)
(0.000237936 -0.00258825 0)
(0.000736802 -0.00449389 0)
(0.00149776 -0.0062994 0)
(0.00249471 -0.0079431 0)
(0.00370355 -0.00942986 0)
(0.00510449 -0.0107796 0)
(0.00667784 -0.0119873 0)
(0.00839481 -0.0129982 0)
(0.0102051 -0.0136931 0)
(0.012023 -0.0138795 0)
(0.0137145 -0.0132865 0)
(0.0150912 -0.0115586 0)
(0.0159138 -0.00823956 0)
(0.0159054 -0.00274714 0)
(0.0147408 0.00561021 0)
(0.0122296 0.0172684 0)
(0.00841141 0.0313132 0)
(0.00398497 0.0422982 0)
(0.000439364 0.0330923 0)
(-2.67945e-06 -0.000911129 0)
(8.23983e-05 -0.00317039 0)
(0.000336358 -0.00552482 0)
(0.000764275 -0.00776021 0)
(0.00135992 -0.0097991 0)
(0.00211522 -0.0116506 0)
(0.00302801 -0.0133412 0)
(0.00409851 -0.0148574 0)
(0.00531908 -0.0161139 0)
(0.00666052 -0.016932 0)
(0.00805528 -0.0170317 0)
(0.00938416 -0.0160367 0)
(0.0104741 -0.0134893 0)
(0.0111138 -0.00886072 0)
(0.0110826 -0.00155484 0)
(0.010128 0.00901768 0)
(0.00817727 0.0229665 0)
(0.00535514 0.0386257 0)
(0.00228696 0.0492119 0)
(0.000179661 0.0362212 0)
(-2.42918e-05 -0.000870014 0)
(-0.000139006 -0.00326072 0)
(-0.000222136 -0.00584324 0)
(-0.000246204 -0.00833267 0)
(-0.000195122 -0.010629 0)
(-5.91103e-05 -0.0127487 0)
(0.000183484 -0.0147319 0)
(0.000559527 -0.0165639 0)
(0.00109044 -0.0181327 0)
(0.00178068 -0.0191976 0)
(0.00259473 -0.0193825 0)
(0.00344334 -0.018198 0)
(0.00418485 -0.0150892 0)
(0.00465107 -0.00948171 0)
(0.0046912 -0.000808116 0)
(0.00412498 0.0113828 0)
(0.0030237 0.0268552 0)
(0.0015991 0.0432991 0)
(0.000295092 0.0530881 0)
(-0.00012736 0.0374586 0)
(-5.03352e-05 -0.00057856 0)
(-0.000376074 -0.00275107 0)
(-0.000824326 -0.0052895 0)
(-0.00136156 -0.00780079 0)
(-0.001958 -0.010155 0)
(-0.00258977 -0.0123808 0)
(-0.00322023 -0.0145404 0)
(-0.00379865 -0.0166342 0)
(-0.00427022 -0.0185336 0)
(-0.00459291 -0.0199424 0)
(-0.00475686 -0.0203911 0)
(-0.00479493 -0.0192804 0)
(-0.00477415 -0.01597 0)
(-0.00476225 -0.00986662 0)
(-0.00477412 -0.000482165 0)
(-0.00479118 0.0123963 0)
(-0.00455407 0.0281416 0)
(-0.00379852 0.0440776 0)
(-0.00242704 0.0526328 0)
(-0.000498701 0.0362358 0)
(-6.06322e-05 -7.1977e-05 0)
(-0.000499418 -0.00168019 0)
(-0.00121774 -0.00384321 0)
(-0.00221006 -0.00604353 0)
(-0.00345547 -0.00812914 0)
(-0.00493049 -0.0101539 0)
(-0.00659758 -0.0122162 0)
(-0.00840285 -0.0143419 0)
(-0.010279 -0.0164055 0)
(-0.012152 -0.0180797 0)
(-0.013947 -0.018835 0)
(-0.0155847 -0.0180174 0)
(-0.0169627 -0.0149871 0)
(-0.0179237 -0.0092428 0)
(-0.0182124 -0.000487993 0)
(-0.0174103 0.0112239 0)
(-0.0151577 0.0251492 0)
(-0.0112748 0.0388906 0)
(-0.00624866 0.0459861 0)
(-0.00108032 0.0314591 0)
(-1.34518e-05 0.000415442 0)
(-0.000270708 -0.000438054 0)
(-0.000946542 -0.00188077 0)
(-0.00210175 -0.00336053 0)
(-0.0037247 -0.00474932 0)
(-0.00579518 -0.0061295 0)
(-0.00830196 -0.00762559 0)
(-0.0112392 -0.00929458 0)
(-0.0145857 -0.0110504 0)
(-0.0182751 -0.012613 0)
(-0.0221629 -0.0135124 0)
(-0.025997 -0.0131906 0)
(-0.0294013 -0.011169 0)
(-0.0318827 -0.00716879 0)
(-0.032837 -0.00110644 0)
(-0.031418 0.0069463 0)
(-0.0271591 0.016544 0)
(-0.0199764 0.0261434 0)
(-0.0108824 0.0314533 0)
(-0.00185889 0.0220671 0)
(0.000133725 0.00030458 0)
(0.000273155 0.000135463 0)
(6.54899e-06 -0.000223613 0)
(-0.000730585 -0.00056261 0)
(-0.0019064 -0.000854333 0)
(-0.00349127 -0.00114411 0)
(-0.00550751 -0.00148674 0)
(-0.00802257 -0.00191604 0)
(-0.0111127 -0.00242336 0)
(-0.0147999 -0.00293754 0)
(-0.0189749 -0.00332095 0)
(-0.0233428 -0.00340748 0)
(-0.0274284 -0.00307189 0)
(-0.0306371 -0.00226723 0)
(-0.0323163 -0.000976666 0)
(-0.031793 0.000899511 0)
(-0.0284094 0.0034992 0)
(-0.0217996 0.00657857 0)
(-0.0127307 0.00889537 0)
(-0.00317882 0.00709891 0)
)
;

boundaryField
{
    leftWall
    {
        type            fixedValue;
        value           uniform (0 0 0);
    }
    rightWall
    {
        type            fixedValue;
        value           uniform (0 0 0);
    }
    topWall
    {
        type            fixedValue;
        value           uniform (0 0 0);
    }
    bottomWall
    {
        type            fixedValue;
        value           uniform (0 0 0);
    }
    frontAndBackPlanes
    {
        type            empty;
    }
}


// ************************************************************************* //
