/*--------------------------------*- C++ -*----------------------------------*\
| =========                 |                                                 |
| \\      /  F ield         | OpenFOAM: The Open Source CFD Toolbox           |
|  \\    /   O peration     | Version:  2506                                  |
|   \\  /    A nd           | Website:  www.openfoam.com                      |
|    \\/     M anipulation  |                                                 |
\*---------------------------------------------------------------------------*/
FoamFile
{
    version     2.0;
    format      ascii;
    arch        "LSB;label=32;scalar=64";
    class       surfaceScalarField;
    location    "55.2";
    object      phi;
}
// * * * * * * * * * * * * * * * * * * * * * * * * * * * * * * * * * * * * * //

dimensions      [1 0 -1 0 0 0 0];

oriented        oriented;

internalField   nonuniform List<scalar> 
370
(
3.82611e-05
-0.000115455
0.000249808
-0.000211495
0.000482999
-0.000233113
0.000700102
-0.000217008
0.000886883
-0.000186675
0.00104604
-0.000159042
0.00118918
-0.000143025
0.00133121
-0.000141912
0.00148744
-0.000156101
0.00167233
-0.000184754
0.00189872
-0.000226258
0.00217631
-0.000277444
0.00250745
-0.000330993
0.00287907
-0.000371465
0.00324822
-0.000368997
0.00351759
-0.000269214
0.00348731
3.0444e-05
0.00293545
0.000552016
0.00162053
0.00131506
0.00162062
0.000190486
-0.000305905
0.000575655
-0.000596561
0.00101217
-0.000669478
0.00142267
-0.000627329
0.00177997
-0.000543775
0.00208469
-0.000463563
0.0023508
-0.000408939
0.00259668
-0.000387587
0.00283994
-0.000399148
0.00309451
-0.000439109
0.00336833
-0.000499861
0.00365992
-0.000568806
0.00395252
-0.000623354
0.00420428
-0.000622983
0.00433506
-0.000499532
0.00421689
-0.000150801
0.0036991
0.000548471
0.00260482
0.00164653
0.00107314
0.00284694
0.00269387
0.000257782
-0.000563622
0.000729685
-0.00106828
0.00123855
-0.00117808
0.00169853
-0.001087
0.00208336
-0.000928281
0.0023975
-0.000777378
0.00265742
-0.000668536
0.00288134
-0.000611176
0.00308427
-0.000601756
0.00327592
-0.00063043
0.00345917
-0.000682769
0.00362747
-0.000736768
0.0037599
-0.000755424
0.00381353
-0.000676255
0.00371662
-0.000402271
0.00337205
0.000194117
0.00269828
0.00122257
0.00169729
0.00264783
0.000601552
0.00394294
0.00329556
0.000282944
-0.000846472
0.000770095
-0.00155517
0.00126067
-0.00166829
0.00167232
-0.00149823
0.0019897
-0.00124522
0.00222682
-0.00101405
0.00240518
-0.000846458
0.00254378
-0.00074934
0.00265591
-0.000713453
0.00274911
-0.000723195
0.00282547
-0.000758685
0.00288037
-0.000791217
0.00289861
-0.000773207
0.00284839
-0.000625563
0.00267731
-0.000230736
0.00232121
0.000550661
0.00174566
0.00179854
0.00100128
0.0033926
0.000298475
0.00464606
0.00359418
0.000276966
-0.00112332
0.000709928
-0.00198781
0.00110096
-0.00205886
0.00138755
-0.0017843
0.0015742
-0.00143134
0.00168727
-0.00112659
0.00175263
-0.000911301
0.00178848
-0.000784672
0.00180555
-0.000730011
0.00180957
-0.0007267
0.00180283
-0.000751423
0.00178344
-0.000771282
0.00174208
-0.000731298
0.00165785
-0.000540777
0.00149631
-6.86474e-05
0.00121851
0.000828996
0.000821634
0.00219591
0.000379626
0.00383506
5.68167e-05
0.00496922
0.00365116
0.000227758
-0.00135093
0.000519173
-0.00227885
0.000718114
-0.00225728
0.000803687
-0.0018693
0.000808108
-0.00143518
0.000767508
-0.00108541
0.000706337
-0.000849564
0.000637387
-0.000715163
0.000566483
-0.000658546
0.000496353
-0.000655999
0.000427682
-0.000682166
0.000357645
-0.000700643
0.000277825
-0.00065086
0.00017457
-0.000436892
3.54111e-05
7.11451e-05
-0.000127759
0.000992777
-0.000274979
0.0023437
-0.000326802
0.00388738
-0.000208554
0.00485135
0.00344275
0.000107155
-0.00145793
0.000129107
-0.00230037
1.91423e-05
-0.00214675
-0.000172478
-0.00167706
-0.000391546
-0.0012155
-0.000604845
-0.000871524
-0.000799492
-0.000654334
-0.000973836
-0.000540235
-0.00113015
-0.000501642
-0.00127151
-0.000514042
-0.00140169
-0.000551382
-0.0015255
-0.000576214
-0.00164653
-0.000529189
-0.00175943
-0.000323349
-0.00183438
0.000146744
-0.00180596
0.000964981
-0.00159533
0.00213364
-0.00114411
0.00343666
-0.00050018
0.00420778
0.00294272
-0.000134165
-0.00132358
-0.000535475
-0.00189859
-0.00105641
-0.00162522
-0.00156805
-0.0011648
-0.00201189
-0.00077106
-0.0023783
-0.000504532
-0.00267917
-0.000352889
-0.00293198
-0.000286853
-0.00315288
-0.000280176
-0.00335458
-0.000311768
-0.00354529
-0.000360105
-0.00372536
-0.000395563
-0.0038801
-0.000373868
-0.003969
-0.00023387
-0.00391713
9.54613e-05
-0.00362282
0.000671247
-0.00299238
0.00150373
-0.00199893
0.00244367
-0.00080789
0.00301708
0.00213497
-0.000507878
-0.000815483
-0.00142623
-0.000979729
-0.00232674
-0.000724102
-0.00304499
-0.000445955
-0.00356989
-0.000245591
-0.00394513
-0.000128748
-0.00422293
-7.45732e-05
-0.0044475
-6.17757e-05
-0.0046515
-7.56777e-05
-0.0048564
-0.00010638
-0.00507158
-0.000144442
-0.0052894
-0.000177266
-0.00547653
-0.000186262
-0.00556471
-0.000145232
-0.00545143
-1.73529e-05
-0.00500044
0.000220711
-0.00409317
0.000596885
-0.00270488
0.00105575
-0.00107167
0.00138416
0.00106342
-0.000815245
-0.00179445
-0.00251795
-0.00296332
-0.00320837
-0.00333662
-0.00341073
-0.00347207
-0.00354733
-0.00365331
-0.00379737
-0.00397427
-0.00416017
-0.00430506
-0.00432209
-0.00410106
-0.00350388
-0.00244786
-0.00106351
)
;

boundaryField
{
    leftWall
    {
        type            calculated;
        value           nonuniform List<scalar> 10(0 -3.38813e-21 0 0 5.42101e-20 -1.0842e-19 0 0 -4.33681e-19 0);
    }
    rightWall
    {
        type            calculated;
        value           uniform 0;
    }
    topWall
    {
        type            calculated;
        value           uniform 0;
    }
    bottomWall
    {
        type            calculated;
        value           uniform 0;
    }
    frontAndBackPlanes
    {
        type            empty;
    }
}


// ************************************************************************* //
