/*--------------------------------*- C++ -*----------------------------------*\
| =========                 |                                                 |
| \\      /  F ield         | OpenFOAM: The Open Source CFD Toolbox           |
|  \\    /   O peration     | Version:  2506                                  |
|   \\  /    A nd           | Website:  www.openfoam.com                      |
|    \\/     M anipulation  |                                                 |
\*---------------------------------------------------------------------------*/
FoamFile
{
    version     2.0;
    format      ascii;
    arch        "LSB;label=32;scalar=64";
    class       volScalarField;
    location    "41.6";
    object      T;
}
// * * * * * * * * * * * * * * * * * * * * * * * * * * * * * * * * * * * * * //

dimensions      [0 0 0 1 0 0 0];

internalField   nonuniform List<scalar> 
200
(
273.15
273.149
273.149
273.149
273.149
273.149
273.148
273.148
273.148
273.148
273.148
273.148
273.148
273.149
273.152
273.16
273.182
273.245
273.41
273.794
273.15
273.152
273.153
273.154
273.155
273.155
273.155
273.155
273.155
273.154
273.154
273.154
273.153
273.153
273.154
273.159
273.178
273.241
273.416
273.815
273.152
273.156
273.161
273.165
273.167
273.169
273.17
273.17
273.169
273.168
273.167
273.166
273.164
273.161
273.16
273.164
273.185
273.255
273.443
273.844
273.155
273.165
273.175
273.183
273.189
273.193
273.194
273.194
273.193
273.191
273.189
273.185
273.18
273.174
273.17
273.173
273.197
273.276
273.477
273.871
273.159
273.177
273.196
273.211
273.222
273.227
273.23
273.229
273.227
273.224
273.219
273.212
273.203
273.193
273.185
273.189
273.218
273.308
273.518
273.899
273.164
273.195
273.224
273.248
273.264
273.273
273.275
273.274
273.271
273.267
273.26
273.251
273.238
273.224
273.214
273.221
273.26
273.363
273.575
273.926
273.171
273.217
273.26
273.295
273.317
273.328
273.332
273.332
273.331
273.328
273.323
273.315
273.305
273.294
273.29
273.303
273.347
273.448
273.642
273.951
273.181
273.244
273.303
273.348
273.377
273.395
273.405
273.412
273.418
273.423
273.426
273.426
273.425
273.422
273.424
273.438
273.479
273.565
273.725
273.981
273.191
273.271
273.344
273.401
273.443
273.473
273.496
273.515
273.531
273.546
273.559
273.571
273.581
273.59
273.599
273.615
273.647
273.711
273.828
274.019
273.197
273.284
273.362
273.427
273.477
273.518
273.551
273.58
273.606
273.631
273.654
273.677
273.7
273.723
273.746
273.771
273.804
273.854
273.934
274.06
)
;

boundaryField
{
    leftWall
    {
        type            fixedValue;
        value           uniform 273.15;
    }
    rightWall
    {
        type            customNeumannDirichletCoupledBoundary;
        refValue        nonuniform List<scalar> 10(274.125 274.126 274.128 274.13 274.132 274.133 274.135 274.137 274.139 274.141);
        refGradient     uniform 0;
        valueFraction   uniform 1;
        source          uniform 0;
        value           nonuniform List<scalar> 10(274.125 274.126 274.128 274.13 274.132 274.133 274.135 274.137 274.139 274.141);
        kappaMethod     fluidThermo;
    }
    topWall
    {
        type            zeroGradient;
    }
    bottomWall
    {
        type            zeroGradient;
    }
    frontAndBackPlanes
    {
        type            empty;
    }
}


// ************************************************************************* //
