/*--------------------------------*- C++ -*----------------------------------*\
| =========                 |                                                 |
| \\      /  F ield         | OpenFOAM: The Open Source CFD Toolbox           |
|  \\    /   O peration     | Version:  2506                                  |
|   \\  /    A nd           | Website:  www.openfoam.com                      |
|    \\/     M anipulation  |                                                 |
\*---------------------------------------------------------------------------*/
FoamFile
{
    version     2.0;
    format      ascii;
    arch        "LSB;label=32;scalar=64";
    class       volScalarField;
    location    "117.4";
    object      T;
}
// * * * * * * * * * * * * * * * * * * * * * * * * * * * * * * * * * * * * * //

dimensions      [0 0 0 1 0 0 0];

internalField   nonuniform List<scalar> 
200
(
273.165
273.192
273.211
273.225
273.234
273.24
273.244
273.248
273.252
273.255
273.258
273.262
273.266
273.27
273.276
273.286
273.309
273.371
273.524
273.858
273.175
273.219
273.25
273.268
273.278
273.283
273.286
273.287
273.289
273.291
273.294
273.297
273.3
273.302
273.305
273.311
273.331
273.391
273.548
273.884
273.188
273.256
273.304
273.331
273.345
273.35
273.351
273.35
273.35
273.35
273.35
273.351
273.351
273.351
273.349
273.352
273.37
273.431
273.593
273.916
273.202
273.296
273.361
273.397
273.414
273.42
273.419
273.416
273.414
273.411
273.41
273.408
273.405
273.4
273.394
273.394
273.411
273.476
273.642
273.946
273.217
273.335
273.417
273.461
273.48
273.484
273.482
273.477
273.473
273.469
273.466
273.462
273.455
273.447
273.439
273.437
273.457
273.528
273.694
273.973
273.231
273.376
273.472
273.522
273.54
273.542
273.538
273.533
273.529
273.526
273.523
273.518
273.51
273.5
273.492
273.493
273.519
273.594
273.749
273.996
273.247
273.419
273.527
273.577
273.594
273.597
273.595
273.593
273.592
273.592
273.591
273.587
273.582
273.575
273.571
273.577
273.605
273.674
273.809
274.018
273.269
273.464
273.577
273.629
273.649
273.657
273.661
273.666
273.67
273.675
273.678
273.679
273.679
273.678
273.678
273.686
273.712
273.769
273.875
274.043
273.291
273.504
273.622
273.678
273.705
273.721
273.733
273.743
273.753
273.763
273.772
273.78
273.787
273.794
273.801
273.811
273.833
273.875
273.951
274.071
273.308
273.525
273.643
273.702
273.734
273.754
273.77
273.784
273.799
273.813
273.828
273.843
273.858
273.874
273.89
273.909
273.932
273.966
274.019
274.097
)
;

boundaryField
{
    leftWall
    {
        type            fixedValue;
        value           uniform 273.15;
    }
    rightWall
    {
        type            customNeumannDirichletCoupledBoundary;
        refValue        nonuniform List<scalar> 10(274.13 274.131 274.133 274.135 274.137 274.139 274.14 274.142 274.143 274.145);
        refGradient     uniform 0;
        valueFraction   uniform 1;
        source          uniform 0;
        value           nonuniform List<scalar> 10(274.13 274.131 274.133 274.135 274.137 274.139 274.14 274.142 274.143 274.145);
        kappaMethod     fluidThermo;
    }
    topWall
    {
        type            zeroGradient;
    }
    bottomWall
    {
        type            zeroGradient;
    }
    frontAndBackPlanes
    {
        type            empty;
    }
}


// ************************************************************************* //
