/*--------------------------------*- C++ -*----------------------------------*\
| =========                 |                                                 |
| \\      /  F ield         | OpenFOAM: The Open Source CFD Toolbox           |
|  \\    /   O peration     | Version:  2506                                  |
|   \\  /    A nd           | Website:  www.openfoam.com                      |
|    \\/     M anipulation  |                                                 |
\*---------------------------------------------------------------------------*/
FoamFile
{
    version     2.0;
    format      ascii;
    arch        "LSB;label=32;scalar=64";
    class       volVectorField;
    location    "71.8";
    object      U;
}
// * * * * * * * * * * * * * * * * * * * * * * * * * * * * * * * * * * * * * //

dimensions      [0 1 -1 0 0 0 0];

internalField   nonuniform List<vector> 
200
(
(0.00010069 -0.000580698 0)
(0.0010774 -0.000813711 0)
(0.00236401 -0.00067638 0)
(0.00354937 -0.000466557 0)
(0.00443796 -0.000287348 0)
(0.00508092 -0.000176017 0)
(0.00556947 -0.000138637 0)
(0.00599988 -0.000165538 0)
(0.00645723 -0.000244397 0)
(0.00701115 -0.000367141 0)
(0.00771779 -0.000531572 0)
(0.00862182 -0.000738505 0)
(0.00975205 -0.000983341 0)
(0.011103 -0.00123943 0)
(0.012589 -0.00142935 0)
(0.0139416 -0.00137341 0)
(0.0145488 -0.000700508 0)
(0.0134684 0.00117835 0)
(0.0097196 0.00439078 0)
(0.00294856 0.00623985 0)
(0.000302171 -0.0025874 0)
(0.00212095 -0.00444078 0)
(0.0043145 -0.00445389 0)
(0.00638805 -0.00370621 0)
(0.00807625 -0.00282484 0)
(0.00937263 -0.00212971 0)
(0.0103781 -0.00173425 0)
(0.0112149 -0.00163979 0)
(0.0119915 -0.00180143 0)
(0.0127893 -0.00216459 0)
(0.0136595 -0.00267665 0)
(0.0146199 -0.00327639 0)
(0.015642 -0.00385972 0)
(0.0166245 -0.0042183 0)
(0.0173465 -0.0039509 0)
(0.0174123 -0.0023627 0)
(0.0161948 0.00156135 0)
(0.0129573 0.0086172 0)
(0.00761527 0.0173001 0)
(0.0013179 0.0179488 0)
(0.000364397 -0.00511754 0)
(0.00244826 -0.00897034 0)
(0.00483587 -0.00918235 0)
(0.00705141 -0.00780633 0)
(0.00883094 -0.00609397 0)
(0.0101756 -0.00466643 0)
(0.0111892 -0.0037446 0)
(0.0119866 -0.00333426 0)
(0.0126601 -0.00334752 0)
(0.0132708 -0.00366867 0)
(0.0138486 -0.00417523 0)
(0.0143901 -0.00472006 0)
(0.0148483 -0.00507603 0)
(0.0151104 -0.00484726 0)
(0.0149647 -0.00336802 0)
(0.0140645 0.000339789 0)
(0.0120229 0.0072893 0)
(0.00865177 0.0175802 0)
(0.00438075 0.0277883 0)
(0.000536072 0.0244194 0)
(0.000374716 -0.0078461 0)
(0.00241742 -0.0136067 0)
(0.00460564 -0.0137937 0)
(0.00651638 -0.0116295 0)
(0.00795115 -0.00900601 0)
(0.00895829 -0.00681583 0)
(0.00965868 -0.00534679 0)
(0.01016 -0.00457788 0)
(0.0105347 -0.00436344 0)
(0.0108234 -0.00452804 0)
(0.011043 -0.00489319 0)
(0.0111896 -0.00524828 0)
(0.0112304 -0.0052734 0)
(0.0110843 -0.00443074 0)
(0.0105975 -0.00187575 0)
(0.00952035 0.00348155 0)
(0.00767725 0.0124461 0)
(0.00505718 0.0244615 0)
(0.0021608 0.0346146 0)
(0.000144385 0.0276252 0)
(0.000360339 -0.0104413 0)
(0.00212555 -0.0176898 0)
(0.0037962 -0.017531 0)
(0.00507926 -0.0144463 0)
(0.00589867 -0.0109335 0)
(0.00636792 -0.00807907 0)
(0.00662079 -0.00616851 0)
(0.0067478 -0.00511376 0)
(0.00679577 -0.00470229 0)
(0.00678588 -0.00471299 0)
(0.00672803 -0.00493756 0)
(0.0066235 -0.00513148 0)
(0.00645555 -0.00491229 0)
(0.00617167 -0.00363609 0)
(0.00566274 -0.000331165 0)
(0.00477638 0.00610722 0)
(0.00346777 0.0162585 0)
(0.00185079 0.0289479 0)
(0.000361988 0.038304 0)
(-0.000141781 0.0286818 0)
(0.000307944 -0.0126295 0)
(0.00150491 -0.0206589 0)
(0.00230471 -0.0197906 0)
(0.00264919 -0.0157602 0)
(0.00264134 -0.0115341 0)
(0.00245194 -0.00825346 0)
(0.00219863 -0.00611517 0)
(0.00193221 -0.00493496 0)
(0.00166549 -0.00444281 0)
(0.00140067 -0.00439623 0)
(0.00113961 -0.00457808 0)
(0.000878664 -0.00472076 0)
(0.000598568 -0.00438792 0)
(0.000261731 -0.00285671 0)
(-0.00020391 0.000906908 0)
(-0.000786182 0.00790819 0)
(-0.00135677 0.018432 0)
(-0.00166886 0.0307916 0)
(-0.00142618 0.0388225 0)
(-0.000364484 0.0278413 0)
(0.000186549 -0.0139638 0)
(0.000357684 -0.0217073 0)
(-0.000180761 -0.0198143 0)
(-0.00110749 -0.015019 0)
(-0.00211671 -0.0104733 0)
(-0.00304198 -0.0071633 0)
(-0.00383217 -0.00510884 0)
(-0.00449938 -0.00402726 0)
(-0.00507233 -0.00362007 0)
(-0.00557454 -0.00364591 0)
(-0.00602369 -0.00388307 0)
(-0.00643898 -0.00403964 0)
(-0.00684176 -0.00365005 0)
(-0.00723461 -0.00200657 0)
(-0.00755719 0.00178698 0)
(-0.0076016 0.00850641 0)
(-0.00707249 0.0182168 0)
(-0.00568394 0.0291623 0)
(-0.00343814 0.0356812 0)
(-0.000644695 0.0249184 0)
(-9.44265e-05 -0.0136445 0)
(-0.00162422 -0.0196238 0)
(-0.00396895 -0.0166624 0)
(-0.00636509 -0.011734 0)
(-0.00839137 -0.00756712 0)
(-0.00997114 -0.00476999 0)
(-0.0111788 -0.00317113 0)
(-0.0121214 -0.00243544 0)
(-0.0128918 -0.00227567 0)
(-0.0135591 -0.00247382 0)
(-0.0141708 -0.00282515 0)
(-0.0147506 -0.00305989 0)
(-0.0152824 -0.00277361 0)
(-0.0156739 -0.00139995 0)
(-0.0156977 0.00172382 0)
(-0.0149854 0.00714472 0)
(-0.0131321 0.0148688 0)
(-0.00988129 0.0234607 0)
(-0.00554512 0.0284446 0)
(-0.000952965 0.019752 0)
(-0.000668745 -0.0105551 0)
(-0.00448374 -0.013389 0)
(-0.00862647 -0.0100355 0)
(-0.012079 -0.00609373 0)
(-0.0145062 -0.00323982 0)
(-0.0160992 -0.00158475 0)
(-0.01715 -0.000817144 0)
(-0.0178993 -0.000621307 0)
(-0.018516 -0.000774116 0)
(-0.0191098 -0.00112618 0)
(-0.0197423 -0.00154956 0)
(-0.0204232 -0.00188203 0)
(-0.0210862 -0.00188498 0)
(-0.0215553 -0.00122736 0)
(-0.0215034 0.00049287 0)
(-0.0204149 0.00366929 0)
(-0.0177602 0.00839011 0)
(-0.0132384 0.0138461 0)
(-0.00732354 0.0173123 0)
(-0.00125635 0.0124065 0)
(-0.00166166 -0.00356832 0)
(-0.00613543 -0.00350233 0)
(-0.00974785 -0.0019735 0)
(-0.0120238 -0.000747384 0)
(-0.0131538 -7.57113e-05 0)
(-0.0136136 0.000202033 0)
(-0.0137701 0.000256104 0)
(-0.0138404 0.000194025 0)
(-0.0139468 7.29348e-05 0)
(-0.0141637 -8.03253e-05 0)
(-0.0145331 -0.000251961 0)
(-0.0150602 -0.000424273 0)
(-0.0156959 -0.000561997 0)
(-0.0163051 -0.000601615 0)
(-0.0166239 -0.000436403 0)
(-0.0162639 0.000102704 0)
(-0.0146924 0.00116795 0)
(-0.0114541 0.00271051 0)
(-0.00676388 0.0040992 0)
(-0.00163139 0.00351134 0)
)
;

boundaryField
{
    leftWall
    {
        type            fixedValue;
        value           uniform (0 0 0);
    }
    rightWall
    {
        type            fixedValue;
        value           uniform (0 0 0);
    }
    topWall
    {
        type            fixedValue;
        value           uniform (0 0 0);
    }
    bottomWall
    {
        type            fixedValue;
        value           uniform (0 0 0);
    }
    frontAndBackPlanes
    {
        type            empty;
    }
}


// ************************************************************************* //
