/*--------------------------------*- C++ -*----------------------------------*\
| =========                 |                                                 |
| \\      /  F ield         | OpenFOAM: The Open Source CFD Toolbox           |
|  \\    /   O peration     | Version:  2506                                  |
|   \\  /    A nd           | Website:  www.openfoam.com                      |
|    \\/     M anipulation  |                                                 |
\*---------------------------------------------------------------------------*/
FoamFile
{
    version     2.0;
    format      ascii;
    arch        "LSB;label=32;scalar=64";
    class       volScalarField;
    location    "122.2";
    object      T;
}
// * * * * * * * * * * * * * * * * * * * * * * * * * * * * * * * * * * * * * //

dimensions      [0 0 0 1 0 0 0];

internalField   nonuniform List<scalar> 
200
(
273.166
273.194
273.215
273.229
273.239
273.245
273.25
273.254
273.258
273.262
273.265
273.269
273.274
273.278
273.284
273.294
273.318
273.379
273.531
273.862
273.176
273.222
273.254
273.274
273.284
273.289
273.292
273.294
273.296
273.298
273.301
273.304
273.307
273.31
273.313
273.319
273.339
273.399
273.555
273.887
273.19
273.261
273.31
273.338
273.352
273.358
273.359
273.358
273.358
273.358
273.358
273.359
273.36
273.359
273.358
273.361
273.378
273.439
273.6
273.92
273.204
273.301
273.368
273.406
273.423
273.428
273.428
273.425
273.422
273.42
273.418
273.416
273.413
273.408
273.403
273.403
273.42
273.485
273.648
273.949
273.219
273.341
273.425
273.47
273.489
273.493
273.491
273.486
273.481
273.478
273.475
273.47
273.464
273.456
273.448
273.446
273.466
273.537
273.701
273.976
273.233
273.382
273.48
273.531
273.549
273.551
273.547
273.542
273.538
273.535
273.531
273.527
273.519
273.509
273.501
273.503
273.529
273.603
273.756
273.998
273.25
273.426
273.535
273.586
273.603
273.605
273.603
273.601
273.601
273.6
273.599
273.596
273.59
273.583
273.579
273.585
273.613
273.682
273.814
274.02
273.272
273.47
273.585
273.637
273.657
273.665
273.669
273.674
273.678
273.682
273.686
273.687
273.687
273.686
273.686
273.694
273.719
273.775
273.88
274.045
273.295
273.511
273.63
273.687
273.713
273.729
273.74
273.751
273.76
273.769
273.778
273.786
273.793
273.8
273.807
273.817
273.839
273.88
273.955
274.072
273.311
273.532
273.651
273.711
273.742
273.761
273.777
273.791
273.805
273.819
273.833
273.848
273.863
273.878
273.895
273.913
273.936
273.97
274.021
274.098
)
;

boundaryField
{
    leftWall
    {
        type            fixedValue;
        value           uniform 273.15;
    }
    rightWall
    {
        type            customNeumannDirichletCoupledBoundary;
        refValue        nonuniform List<scalar> 10(274.13 274.131 274.133 274.135 274.137 274.139 274.14 274.142 274.144 274.145);
        refGradient     uniform 0;
        valueFraction   uniform 1;
        source          uniform 0;
        value           nonuniform List<scalar> 10(274.13 274.131 274.133 274.135 274.137 274.139 274.14 274.142 274.144 274.145);
        kappaMethod     fluidThermo;
    }
    topWall
    {
        type            zeroGradient;
    }
    bottomWall
    {
        type            zeroGradient;
    }
    frontAndBackPlanes
    {
        type            empty;
    }
}


// ************************************************************************* //
