/*--------------------------------*- C++ -*----------------------------------*\
| =========                 |                                                 |
| \\      /  F ield         | OpenFOAM: The Open Source CFD Toolbox           |
|  \\    /   O peration     | Version:  2506                                  |
|   \\  /    A nd           | Website:  www.openfoam.com                      |
|    \\/     M anipulation  |                                                 |
\*---------------------------------------------------------------------------*/
FoamFile
{
    version     2.0;
    format      ascii;
    arch        "LSB;label=32;scalar=64";
    class       surfaceScalarField;
    location    "66.4";
    object      phi;
}
// * * * * * * * * * * * * * * * * * * * * * * * * * * * * * * * * * * * * * //

dimensions      [1 0 -1 0 0 0 0];

oriented        oriented;

internalField   nonuniform List<scalar> 
370
(
9.29717e-05
-0.000160408
0.000366177
-0.000273133
0.000642963
-0.00027668
0.000877672
-0.000234581
0.00106096
-0.000183148
0.00120362
-0.000142504
0.00132421
-0.000120434
0.00144206
-0.000117685
0.00157437
-0.000132152
0.00173574
-0.000161193
0.00193826
-0.000202345
0.00219099
-0.000252541
0.0024966
-0.00030542
0.00284383
-0.00034704
0.00319279
-0.000348752
0.0034494
-0.00025641
0.00341753
3.20872e-05
0.00287604
0.000541689
0.00158617
0.00129006
0.00158628
0.000247137
-0.000407501
0.000710155
-0.000736031
0.00120387
-0.000770221
0.00164002
-0.000670525
0.00199529
-0.000538195
0.00227909
-0.000426079
0.00251377
-0.000354876
0.00272354
-0.000327228
0.00292915
-0.000337527
0.00314559
-0.000377394
0.00338087
-0.000437386
0.00363379
-0.000505215
0.00388907
-0.000560444
0.004108
-0.00056571
0.00421507
-0.00045555
0.00408745
-0.000128532
0.00357824
0.000541565
0.00251508
0.0016051
0.0010329
0.00277246
0.0026193
0.000301836
-0.000709271
0.000830053
-0.00126406
0.00137526
-0.00131516
0.00184586
-0.00114081
0.00222063
-0.000912645
0.00251153
-0.000716636
0.00274123
-0.000584251
0.00293191
-0.000517574
0.00310045
-0.000505739
0.00325708
-0.0005337
0.00340479
-0.000584769
0.00353764
-0.000637728
0.00363651
-0.000658968
0.00366201
-0.000590876
0.00354768
-0.000340869
0.00320243
0.000217062
0.00255065
0.00119367
0.001595
0.00256107
0.00055881
0.00380891
0.00317824
0.000310013
-0.0010192
0.00082324
-0.00177705
0.00132104
-0.00181263
0.00172279
-0.00154216
0.00202034
-0.00120978
0.00223378
-0.000929666
0.00238798
-0.000738031
0.0025029
-0.000632089
0.00259153
-0.000593959
0.00266071
-0.000602476
0.0027122
-0.000635854
0.0027419
-0.000667026
0.00273635
-0.000653002
0.00266694
-0.00052105
0.00248652
-0.000160037
0.00213793
0.000566059
0.00159208
0.00173992
0.000898962
0.00325455
0.000257678
0.00445049
0.00343605
0.000286334
-0.00130543
0.000715188
-0.00220562
0.00108604
-0.00218308
0.00134601
-0.00180169
0.00150824
-0.00137153
0.00160255
-0.0010235
0.00165435
-0.000789367
0.00167964
-0.000656924
0.00168694
-0.000600798
0.00168053
-0.000595623
0.00166236
-0.000617225
0.00163107
-0.000635285
0.0015787
-0.000600175
0.00148633
-0.000428217
0.00132181
4.95648e-06
0.00105534
0.000832992
0.000688723
0.00210698
0.000294676
0.003649
2.61361e-05
0.00471934
0.00346232
0.000221119
-0.00152643
0.000482425
-0.00246661
0.000640496
-0.00234071
0.000691762
-0.00185246
0.00067554
-0.0013548
0.000626866
-0.000974327
0.000565624
-0.000727637
0.000500087
-0.000590908
0.000433155
-0.000533393
0.000366363
-0.000528359
0.00030038
-0.000550771
0.000232926
-0.000567355
0.000156299
-0.000523063
5.7938e-05
-0.000329359
-7.14047e-05
0.000134812
-0.000219121
0.000981215
-0.000343951
0.00223229
-0.000367643
0.00367311
-0.000222124
0.00457413
0.00324032
8.55681e-05
-0.00161187
5.84892e-05
-0.00243919
-9.87695e-05
-0.00218298
-0.00031997
-0.00163075
-0.000547765
-0.0011265
-0.000754594
-0.000767001
-0.000934476
-0.000547269
-0.00109068
-0.000434228
-0.00122796
-0.00039564
-0.00135014
-0.000405707
-0.00146089
-0.000439556
-0.00156473
-0.000463043
-0.00166518
-0.00042213
-0.00175724
-0.0002368
-0.00181222
0.000190289
-0.00177115
0.000940638
-0.00155844
0.00202005
-0.00111516
0.00323024
-0.000486392
0.00394566
0.00275405
-0.000167706
-0.00144401
-0.000625821
-0.00198069
-0.00118705
-0.00162127
-0.00171099
-0.0011063
-0.00214477
-0.000692229
-0.00248714
-0.000424146
-0.00275683
-0.000277104
-0.00297539
-0.000215204
-0.00316078
-0.000209796
-0.00332621
-0.000239837
-0.00347998
-0.000285341
-0.00362301
-0.000319576
-0.00374232
-0.000302373
-0.00380118
-0.000177496
-0.00373142
0.000120969
-0.00343966
0.000649321
-0.00283661
0.00141741
-0.00189379
0.0022878
-0.000765161
0.00281731
0.001989
-0.000555996
-0.000887849
-0.00152847
-0.00100783
-0.00244618
-0.000703081
-0.00314812
-0.000403863
-0.00363815
-0.000201717
-0.00397113
-9.07139e-05
-0.00420489
-4.29011e-05
-0.00438571
-3.39631e-05
-0.00454612
-4.89761e-05
-0.00470669
-7.88645e-05
-0.00487656
-0.000115089
-0.00504932
-0.000146446
-0.00519509
-0.000156232
-0.00525175
-0.000120482
-0.00512849
-1.93145e-06
-0.00469277
0.000213948
-0.00383607
0.000561042
-0.00253291
0.000984931
-0.0010029
0.00128752
0.000986202
-0.000887668
-0.0018951
-0.00259771
-0.0030011
-0.00320236
-0.00329264
-0.00333514
-0.00336872
-0.00341733
-0.00349585
-0.00361061
-0.00375674
-0.00391268
-0.00403288
-0.00403455
-0.00382035
-0.00325908
-0.00227394
-0.00098627
)
;

boundaryField
{
    leftWall
    {
        type            calculated;
        value           nonuniform List<scalar> 10(8.47033e-22 0 0 0 0 0 0 0 0 0);
    }
    rightWall
    {
        type            calculated;
        value           nonuniform List<scalar> 10(0 0 0 0 -4.33681e-19 0 0 0 0 4.33681e-19);
    }
    topWall
    {
        type            calculated;
        value           uniform 0;
    }
    bottomWall
    {
        type            calculated;
        value           uniform 0;
    }
    frontAndBackPlanes
    {
        type            empty;
    }
}


// ************************************************************************* //
