/*--------------------------------*- C++ -*----------------------------------*\
| =========                 |                                                 |
| \\      /  F ield         | OpenFOAM: The Open Source CFD Toolbox           |
|  \\    /   O peration     | Version:  2506                                  |
|   \\  /    A nd           | Website:  www.openfoam.com                      |
|    \\/     M anipulation  |                                                 |
\*---------------------------------------------------------------------------*/
FoamFile
{
    version     2.0;
    format      ascii;
    arch        "LSB;label=32;scalar=64";
    class       volScalarField;
    location    "2";
    object      T;
}
// * * * * * * * * * * * * * * * * * * * * * * * * * * * * * * * * * * * * * //

dimensions      [0 0 0 1 0 0 0];

internalField   nonuniform List<scalar> 
200
(
273.15
273.15
273.15
273.15
273.15
273.15
273.15
273.15
273.15
273.15
273.15
273.15
273.15
273.15
273.15
273.15
273.151
273.155
273.199
273.499
273.147
273.145
273.145
273.145
273.145
273.145
273.145
273.145
273.145
273.145
273.145
273.145
273.145
273.145
273.145
273.145
273.145
273.15
273.195
273.501
273.144
273.14
273.139
273.139
273.139
273.139
273.139
273.139
273.139
273.139
273.139
273.139
273.139
273.139
273.139
273.139
273.139
273.144
273.19
273.5
273.14
273.134
273.133
273.132
273.132
273.132
273.132
273.132
273.132
273.132
273.132
273.132
273.132
273.132
273.132
273.132
273.133
273.138
273.185
273.498
273.137
273.128
273.126
273.126
273.126
273.126
273.126
273.126
273.126
273.126
273.126
273.126
273.126
273.126
273.126
273.126
273.127
273.132
273.179
273.494
273.133
273.122
273.12
273.12
273.12
273.12
273.12
273.12
273.12
273.12
273.12
273.12
273.12
273.12
273.12
273.12
273.12
273.125
273.174
273.491
273.13
273.116
273.114
273.113
273.113
273.113
273.113
273.113
273.113
273.113
273.113
273.113
273.113
273.113
273.113
273.113
273.114
273.119
273.168
273.487
273.126
273.11
273.107
273.107
273.107
273.107
273.107
273.107
273.107
273.107
273.107
273.107
273.107
273.107
273.107
273.107
273.108
273.114
273.164
273.484
273.123
273.105
273.101
273.101
273.101
273.101
273.101
273.101
273.101
273.101
273.101
273.101
273.101
273.101
273.101
273.101
273.101
273.108
273.161
273.481
273.12
273.099
273.095
273.094
273.094
273.094
273.094
273.094
273.094
273.094
273.094
273.094
273.094
273.094
273.094
273.094
273.095
273.104
273.162
273.478
)
;

boundaryField
{
    leftWall
    {
        type            fixedValue;
        value           uniform 273.15;
    }
    rightWall
    {
        type            customNeumannDirichletCoupledBoundary;
        refValue        nonuniform List<scalar> 10(274.091 274.091 274.091 274.091 274.091 274.09 274.09 274.09 274.09 274.089);
        refGradient     uniform 0;
        valueFraction   uniform 1;
        source          uniform 0;
        value           nonuniform List<scalar> 10(274.091 274.091 274.091 274.091 274.091 274.09 274.09 274.09 274.09 274.089);
        kappaMethod     fluidThermo;
    }
    topWall
    {
        type            zeroGradient;
    }
    bottomWall
    {
        type            zeroGradient;
    }
    frontAndBackPlanes
    {
        type            empty;
    }
}


// ************************************************************************* //
