/*--------------------------------*- C++ -*----------------------------------*\
| =========                 |                                                 |
| \\      /  F ield         | OpenFOAM: The Open Source CFD Toolbox           |
|  \\    /   O peration     | Version:  2506                                  |
|   \\  /    A nd           | Website:  www.openfoam.com                      |
|    \\/     M anipulation  |                                                 |
\*---------------------------------------------------------------------------*/
FoamFile
{
    version     2.0;
    format      ascii;
    arch        "LSB;label=32;scalar=64";
    class       surfaceScalarField;
    location    "48";
    object      phi;
}
// * * * * * * * * * * * * * * * * * * * * * * * * * * * * * * * * * * * * * //

dimensions      [1 0 -1 0 0 0 0];

oriented        oriented;

internalField   nonuniform List<scalar> 
370
(
6.0256e-06
-9.04367e-05
0.000183202
-0.000177142
0.000395821
-0.000212564
0.000610613
-0.000214723
0.000809148
-0.000198458
0.00098798
-0.000178749
0.0011536
-0.000165537
0.00131773
-0.000164038
0.00149424
-0.000176417
0.00169729
-0.000202955
0.00193977
-0.000242382
0.00223109
-0.000291213
0.00257266
-0.000341467
0.00294991
-0.000377141
0.00331856
-0.000368533
0.00358081
-0.000262144
0.00354011
4.08083e-05
0.00297296
0.000567257
0.0016399
0.00133317
0.00163997
0.000156556
-0.000246964
0.000502623
-0.000523126
0.000919294
-0.000629111
0.00133378
-0.000629059
0.00171359
-0.000578102
0.00205144
-0.000516426
0.00235458
-0.000468504
0.00263707
-0.000446346
0.00291437
-0.000453535
0.00319961
-0.000488006
0.00350022
-0.000542804
0.00381367
-0.000604453
0.00412112
-0.000648709
0.00437803
-0.000633843
0.00450195
-0.000492252
0.00436454
-0.000124536
0.00381439
0.000591152
0.00268042
0.00170141
0.00110441
0.00290937
0.00274447
0.000231389
-0.000478295
0.00067872
-0.000970289
0.00118403
-0.00113417
0.00166072
-0.00110546
0.00207521
-0.00099229
0.00242465
-0.000865549
0.00272055
-0.000764085
0.00297871
-0.0007042
0.00321357
-0.00068807
0.00343488
-0.000709
0.00364527
-0.000752863
0.00383673
-0.000795578
0.00398528
-0.000796921
0.00404386
-0.000692082
0.00393688
-0.000384953
0.00356536
0.000247288
0.00284894
0.00130787
0.00179325
0.00275739
0.00063949
0.00406338
0.0033841
0.000266473
-0.00074467
0.00074693
-0.00145047
0.00124969
-0.00163655
0.0016862
-0.00154152
0.00203253
-0.00133816
0.00229716
-0.00112972
0.00249985
-0.000966321
0.00266036
-0.000864258
0.00279375
-0.000821017
0.00290904
-0.000823841
0.00300852
-0.000851875
0.00308586
-0.000872448
0.00312208
-0.000832679
0.00308005
-0.000649583
0.00290217
-0.000206629
0.00252108
0.000628781
0.00190206
0.00192729
0.00109998
0.00355984
0.000336364
0.00482732
0.00372062
0.000270917
-0.00101545
0.000712567
-0.00189175
0.00112557
-0.00204903
0.00143667
-0.00185205
0.00164218
-0.00154308
0.00176648
-0.00125345
0.0018379
-0.00103719
0.00187872
-0.000904527
0.00190327
-0.000845018
0.00191928
-0.000839297
0.00192908
-0.000861104
0.00192887
-0.000871649
0.00190577
-0.000808975
0.00183393
-0.000577154
0.0016732
-4.53532e-05
0.00138164
0.000920864
0.000952213
0.00235719
0.000462011
0.0040505
8.67213e-05
0.00520298
0.00380751
0.000230861
-0.00124614
0.000542152
-0.00220258
0.000765863
-0.00227212
0.000868284
-0.0019538
0.000875368
-0.0015495
0.000826648
-0.00120409
0.00075312
-0.000963045
0.000673414
-0.00082421
0.000596815
-0.000767797
0.000527054
-0.000768892
0.000464061
-0.000797436
0.000403364
-0.000810248
0.000334645
-0.000739534
0.000242206
-0.000483996
0.00011079
8.67374e-05
-5.30515e-05
0.00108534
-0.000211878
0.0025166
-0.000286223
0.00412536
-0.000194094
0.00511125
0.00361358
0.000118247
-0.00136418
0.000166918
-0.00225071
7.82236e-05
-0.00218272
-0.000110396
-0.00176445
-0.000343646
-0.00131557
-0.0005809
-0.000966183
-0.000801747
-0.000741553
-0.000999835
-0.000625467
-0.00117571
-0.000591245
-0.00133255
-0.000611345
-0.00147471
-0.000654533
-0.00160706
-0.000677139
-0.00173217
-0.000613641
-0.00184301
-0.000372373
-0.00190904
0.000153527
-0.00186636
0.00104337
-0.00163826
0.00228914
-0.00116979
0.00365743
-0.000510483
0.00445234
0.00310326
-0.000116596
-0.00124734
-0.000491043
-0.00187565
-0.00100166
-0.00167136
-0.0015258
-0.00123957
-0.00199713
-0.000843556
-0.00239782
-0.000564838
-0.00273448
-0.000404244
-0.00302248
-0.000336811
-0.00327773
-0.000335326
-0.00351308
-0.000375323
-0.00373598
-0.000430931
-0.00394454
-0.000467863
-0.00412004
-0.000437423
-0.00421671
-0.000274978
-0.00415495
9.24868e-05
-0.00383015
0.000719256
-0.00315105
0.00161064
-0.00209709
0.002604
-0.000845037
0.00320066
0.00225837
-0.000481315
-0.000765731
-0.00137901
-0.000977282
-0.00228934
-0.000760248
-0.00303893
-0.000489235
-0.00360215
-0.000279682
-0.00401505
-0.000151329
-0.00432861
-9.01102e-05
-0.00458888
-7.59768e-05
-0.0048307
-9.29513e-05
-0.00507643
-0.000129039
-0.00533428
-0.000172525
-0.00559303
-0.000208556
-0.00581341
-0.000216472
-0.00591941
-0.000168415
-0.00579978
-2.65704e-05
-0.00531374
0.000233757
-0.00434058
0.000637994
-0.00286183
0.00112569
-0.00113145
0.00147059
0.00112705
-0.000765398
-0.00174195
-0.00250137
-0.00298983
-0.00326884
-0.00341959
-0.00350918
-0.00358469
-0.0036772
-0.00380582
-0.00397794
-0.0041861
-0.00440218
-0.00457021
-0.00459641
-0.00436229
-0.00372395
-0.00259797
-0.00112715
)
;

boundaryField
{
    leftWall
    {
        type            calculated;
        value           nonuniform List<scalar> 10(1.05879e-22 -1.69407e-21 0 0 0 0 0 0 0 0);
    }
    rightWall
    {
        type            calculated;
        value           nonuniform List<scalar> 10(0 0 0 4.33681e-19 0 0 0 0 0 0);
    }
    topWall
    {
        type            calculated;
        value           uniform 0;
    }
    bottomWall
    {
        type            calculated;
        value           uniform 0;
    }
    frontAndBackPlanes
    {
        type            empty;
    }
}


// ************************************************************************* //
