/*--------------------------------*- C++ -*----------------------------------*\
| =========                 |                                                 |
| \\      /  F ield         | OpenFOAM: The Open Source CFD Toolbox           |
|  \\    /   O peration     | Version:  2506                                  |
|   \\  /    A nd           | Website:  www.openfoam.com                      |
|    \\/     M anipulation  |                                                 |
\*---------------------------------------------------------------------------*/
FoamFile
{
    version     2.0;
    format      ascii;
    arch        "LSB;label=32;scalar=64";
    class       volScalarField;
    location    "48";
    object      T;
}
// * * * * * * * * * * * * * * * * * * * * * * * * * * * * * * * * * * * * * //

dimensions      [0 0 0 1 0 0 0];

internalField   nonuniform List<scalar> 
200
(
273.15
273.151
273.152
273.152
273.152
273.152
273.152
273.152
273.152
273.152
273.152
273.152
273.153
273.154
273.156
273.164
273.187
273.25
273.414
273.797
273.152
273.155
273.159
273.161
273.163
273.164
273.164
273.164
273.164
273.164
273.163
273.163
273.163
273.162
273.163
273.168
273.187
273.25
273.425
273.821
273.155
273.165
273.173
273.18
273.184
273.186
273.186
273.186
273.186
273.185
273.184
273.183
273.18
273.178
273.175
273.178
273.199
273.269
273.456
273.851
273.16
273.179
273.196
273.208
273.215
273.218
273.219
273.219
273.217
273.215
273.213
273.209
273.204
273.197
273.192
273.193
273.217
273.295
273.494
273.879
273.166
273.198
273.225
273.244
273.255
273.26
273.261
273.26
273.257
273.254
273.249
273.243
273.234
273.223
273.213
273.214
273.242
273.331
273.538
273.908
273.174
273.222
273.261
273.288
273.303
273.309
273.31
273.308
273.306
273.302
273.297
273.289
273.277
273.262
273.249
273.253
273.291
273.39
273.596
273.934
273.184
273.25
273.303
273.339
273.358
273.366
273.368
273.369
273.369
273.368
273.365
273.359
273.349
273.338
273.331
273.341
273.381
273.477
273.663
273.96
273.196
273.283
273.35
273.393
273.418
273.432
273.442
273.449
273.456
273.462
273.466
273.468
273.467
273.464
273.465
273.476
273.512
273.593
273.745
273.989
273.21
273.315
273.394
273.447
273.483
273.509
273.529
273.546
273.563
273.577
273.591
273.603
273.613
273.623
273.632
273.646
273.675
273.735
273.845
274.026
273.218
273.332
273.417
273.477
273.52
273.554
273.582
273.607
273.631
273.654
273.677
273.699
273.722
273.744
273.767
273.792
273.823
273.87
273.946
274.065
)
;

boundaryField
{
    leftWall
    {
        type            fixedValue;
        value           uniform 273.15;
    }
    rightWall
    {
        type            customNeumannDirichletCoupledBoundary;
        refValue        nonuniform List<scalar> 10(274.125 274.127 274.128 274.13 274.132 274.134 274.136 274.138 274.14 274.142);
        refGradient     uniform 0;
        valueFraction   uniform 1;
        source          uniform 0;
        value           nonuniform List<scalar> 10(274.125 274.127 274.128 274.13 274.132 274.134 274.136 274.138 274.14 274.142);
        kappaMethod     fluidThermo;
    }
    topWall
    {
        type            zeroGradient;
    }
    bottomWall
    {
        type            zeroGradient;
    }
    frontAndBackPlanes
    {
        type            empty;
    }
}


// ************************************************************************* //
