/*--------------------------------*- C++ -*----------------------------------*\
| =========                 |                                                 |
| \\      /  F ield         | OpenFOAM: The Open Source CFD Toolbox           |
|  \\    /   O peration     | Version:  2506                                  |
|   \\  /    A nd           | Website:  www.openfoam.com                      |
|    \\/     M anipulation  |                                                 |
\*---------------------------------------------------------------------------*/
FoamFile
{
    version     2.0;
    format      ascii;
    arch        "LSB;label=32;scalar=64";
    class       volVectorField;
    location    "48";
    object      U;
}
// * * * * * * * * * * * * * * * * * * * * * * * * * * * * * * * * * * * * * //

dimensions      [0 1 -1 0 0 0 0];

internalField   nonuniform List<vector> 
200
(
(-0.000146492 -0.00025821 0)
(0.000270079 -0.000412988 0)
(0.00115279 -0.000424556 0)
(0.00210534 -0.000400122 0)
(0.00297478 -0.000350823 0)
(0.00375817 -0.000304054 0)
(0.00446862 -0.000283839 0)
(0.00514532 -0.000302647 0)
(0.00584338 -0.000366333 0)
(0.00662322 -0.000478299 0)
(0.00754354 -0.000640652 0)
(0.00865429 -0.000851996 0)
(0.00998433 -0.00110069 0)
(0.0115181 -0.00135121 0)
(0.0131506 -0.00152022 0)
(0.014592 -0.00143001 0)
(0.0152146 -0.000717239 0)
(0.0140665 0.00121812 0)
(0.0101494 0.00453426 0)
(0.00307504 0.00648902 0)
(0.000140846 -0.00130733 0)
(0.00127763 -0.00270125 0)
(0.0029238 -0.00325722 0)
(0.00470593 -0.00328749 0)
(0.00638484 -0.00304814 0)
(0.00788239 -0.00275425 0)
(0.00920855 -0.00254497 0)
(0.0104149 -0.00249393 0)
(0.0115677 -0.00262954 0)
(0.01273 -0.00294991 0)
(0.0139485 -0.00342667 0)
(0.0152385 -0.00399478 0)
(0.0165623 -0.00452525 0)
(0.0177967 -0.00477776 0)
(0.0186894 -0.00433146 0)
(0.0188101 -0.00249924 0)
(0.0175021 0.0017147 0)
(0.0140061 0.00910524 0)
(0.00825096 0.0181542 0)
(0.00144007 0.0188724 0)
(0.000241235 -0.00295678 0)
(0.00181679 -0.00610099 0)
(0.00386039 -0.00726229 0)
(0.00596247 -0.00720657 0)
(0.00784513 -0.00658332 0)
(0.00943695 -0.00584516 0)
(0.0107697 -0.00525635 0)
(0.0119097 -0.00493999 0)
(0.012925 -0.0049257 0)
(0.013869 -0.00518081 0)
(0.0147706 -0.00561877 0)
(0.0156227 -0.00608173 0)
(0.0163641 -0.00629685 0)
(0.016854 -0.00581112 0)
(0.0168406 -0.00392317 0)
(0.0159308 0.000335587 0)
(0.0136925 0.00794074 0)
(0.00992365 0.0189286 0)
(0.00510162 0.0297269 0)
(0.000657796 0.0261453 0)
(0.000291307 -0.00508892 0)
(0.00206299 -0.0101184 0)
(0.00417374 -0.0116537 0)
(0.00618369 -0.0112127 0)
(0.0078332 -0.00994337 0)
(0.00909844 -0.00856927 0)
(0.0100548 -0.00746857 0)
(0.0107947 -0.00678657 0)
(0.0113948 -0.00652883 0)
(0.0119066 -0.00661719 0)
(0.0123553 -0.00690497 0)
(0.0127349 -0.00715177 0)
(0.0129971 -0.00696339 0)
(0.0130306 -0.00571521 0)
(0.0126392 -0.00250699 0)
(0.0115129 0.00374595 0)
(0.00942634 0.0137733 0)
(0.00635655 0.0268651 0)
(0.00287157 0.0377884 0)
(0.000258629 0.030177 0)
(0.000320144 -0.00739249 0)
(0.00205042 -0.0141123 0)
(0.00388439 -0.0156529 0)
(0.00542996 -0.0144994 0)
(0.00650947 -0.012379 0)
(0.00717805 -0.0102829 0)
(0.00756281 -0.00866289 0)
(0.00777805 -0.00764321 0)
(0.00790209 -0.00717685 0)
(0.00798044 -0.00713132 0)
(0.00803385 -0.00730828 0)
(0.00806034 -0.00740586 0)
(0.00802781 -0.00693861 0)
(0.00785974 -0.00514945 0)
(0.00742014 -0.000989721 0)
(0.00648651 0.00666524 0)
(0.00496437 0.0182717 0)
(0.00294674 0.0323985 0)
(0.000952159 0.0426608 0)
(-4.33877e-05 0.0319526 0)
(0.000308591 -0.00957526 0)
(0.00167517 -0.0174503 0)
(0.00281502 -0.0185261 0)
(0.00349997 -0.0164044 0)
(0.00371038 -0.0133867 0)
(0.00359587 -0.0106614 0)
(0.00331681 -0.00867465 0)
(0.00298172 -0.00747624 0)
(0.00264773 -0.00694414 0)
(0.00233963 -0.00689219 0)
(0.00206363 -0.00708227 0)
(0.00180963 -0.00716674 0)
(0.00154643 -0.00659113 0)
(0.0012199 -0.00450496 0)
(0.000756496 0.000224221 0)
(0.000119709 0.00867464 0)
(-0.000585586 0.0209938 0)
(-0.00112522 0.0350855 0)
(-0.00116442 0.0440767 0)
(-0.000336625 0.0315813 0)
(0.000220173 -0.0111585 0)
(0.000720618 -0.0192068 0)
(0.000615129 -0.0193345 0)
(-4.39785e-06 -0.016195 0)
(-0.000924983 -0.0124917 0)
(-0.00193299 -0.00945602 0)
(-0.00290247 -0.00741231 0)
(-0.00378092 -0.00628521 0)
(-0.00456035 -0.00587237 0)
(-0.00525173 -0.00594469 0)
(-0.00587336 -0.00623413 0)
(-0.00644824 -0.00635985 0)
(-0.00699833 -0.00573748 0)
(-0.00752129 -0.0035276 0)
(-0.00794741 0.00127971 0)
(-0.00804063 0.00948165 0)
(-0.00748643 0.0209818 0)
(-0.00600937 0.0336592 0)
(-0.00364143 0.0410947 0)
(-0.000693774 0.0286946 0)
(-1.84274e-05 -0.0112955 0)
(-0.00110302 -0.018023 0)
(-0.00305861 -0.0168834 0)
(-0.00530315 -0.0131411 0)
(-0.00742009 -0.00940563 0)
(-0.00924688 -0.00662708 0)
(-0.010777 -0.00492635 0)
(-0.0120674 -0.00412013 0)
(-0.0131892 -0.00396619 0)
(-0.0142059 -0.00422881 0)
(-0.0151644 -0.00464833 0)
(-0.0160831 -0.00487362 0)
(-0.0169295 -0.00439997 0)
(-0.0175785 -0.00255537 0)
(-0.0177516 0.00140747 0)
(-0.0169991 0.00804864 0)
(-0.0148878 0.0172696 0)
(-0.0111753 0.0273397 0)
(-0.0062608 0.0331147 0)
(-0.00108262 0.0230042 0)
(-0.000527844 -0.0088751 0)
(-0.00380919 -0.0126731 0)
(-0.00772304 -0.0106728 0)
(-0.0112843 -0.00736624 0)
(-0.0140409 -0.00456741 0)
(-0.0160474 -0.00273645 0)
(-0.0175228 -0.00178783 0)
(-0.0186864 -0.00149418 0)
(-0.0197119 -0.00164087 0)
(-0.0207212 -0.00205008 0)
(-0.0217824 -0.0025474 0)
(-0.0228958 -0.00291295 0)
(-0.0239651 -0.00284298 0)
(-0.0247589 -0.0019412 0)
(-0.0248701 0.000246722 0)
(-0.023681 0.00413901 0)
(-0.0206124 0.00980617 0)
(-0.0153534 0.0162628 0)
(-0.00849139 0.0203314 0)
(-0.00146272 0.0145825 0)
(-0.00135453 -0.00294514 0)
(-0.0053167 -0.00335474 0)
(-0.00899296 -0.00225649 0)
(-0.0116557 -0.0011442 0)
(-0.0132382 -0.000407053 0)
(-0.0140838 -2.38393e-05 0)
(-0.0145387 0.000111428 0)
(-0.014851 9.12459e-05 0)
(-0.015183 -2.34323e-05 0)
(-0.0156385 -0.000196723 0)
(-0.0162747 -0.000403643 0)
(-0.0170963 -0.000613773 0)
(-0.0180358 -0.000776961 0)
(-0.0189204 -0.000812376 0)
(-0.0194301 -0.000595118 0)
(-0.0190927 6.41358e-05 0)
(-0.0172814 0.00135892 0)
(-0.0134832 0.00321765 0)
(-0.00797139 0.00487427 0)
(-0.00193175 0.00416989 0)
)
;

boundaryField
{
    leftWall
    {
        type            fixedValue;
        value           uniform (0 0 0);
    }
    rightWall
    {
        type            fixedValue;
        value           uniform (0 0 0);
    }
    topWall
    {
        type            fixedValue;
        value           uniform (0 0 0);
    }
    bottomWall
    {
        type            fixedValue;
        value           uniform (0 0 0);
    }
    frontAndBackPlanes
    {
        type            empty;
    }
}


// ************************************************************************* //
