/*--------------------------------*- C++ -*----------------------------------*\
| =========                 |                                                 |
| \\      /  F ield         | OpenFOAM: The Open Source CFD Toolbox           |
|  \\    /   O peration     | Version:  2506                                  |
|   \\  /    A nd           | Website:  www.openfoam.com                      |
|    \\/     M anipulation  |                                                 |
\*---------------------------------------------------------------------------*/
FoamFile
{
    version     2.0;
    format      ascii;
    arch        "LSB;label=32;scalar=64";
    class       volVectorField;
    location    "49.2";
    object      U;
}
// * * * * * * * * * * * * * * * * * * * * * * * * * * * * * * * * * * * * * //

dimensions      [0 1 -1 0 0 0 0];

internalField   nonuniform List<vector> 
200
(
(-0.000133516 -0.000272296 0)
(0.000307164 -0.00043077 0)
(0.00120237 -0.000434428 0)
(0.0021576 -0.000400212 0)
(0.00301743 -0.000344083 0)
(0.00378289 -0.000294079 0)
(0.00447212 -0.000273341 0)
(0.00512795 -0.000293139 0)
(0.00580748 -0.000358353 0)
(0.00657199 -0.000471831 0)
(0.0074804 -0.000635567 0)
(0.00858288 -0.000848377 0)
(0.00990875 -0.00109893 0)
(0.0114432 -0.00135183 0)
(0.0130816 -0.00152333 0)
(0.0145337 -0.001435 0)
(0.0151691 -0.000722753 0)
(0.0140343 0.00121349 0)
(0.0101305 0.00452892 0)
(0.00307057 0.00648077 0)
(0.000148835 -0.00136295 0)
(0.00131322 -0.00276841 0)
(0.00297238 -0.00328674 0)
(0.00474901 -0.00327051 0)
(0.00640558 -0.00299585 0)
(0.00787047 -0.00268313 0)
(0.00916037 -0.00246928 0)
(0.0103317 -0.00242315 0)
(0.0114533 -0.00256864 0)
(0.0125897 -0.00290094 0)
(0.0137879 -0.00339058 0)
(0.015064 -0.00397289 0)
(0.0163812 -0.00451973 0)
(0.0176182 -0.0047907 0)
(0.0185233 -0.00436289 0)
(0.0186664 -0.00254547 0)
(0.0173896 0.00166009 0)
(0.0139292 0.00904973 0)
(0.00821012 0.0180998 0)
(0.00143308 0.0188284 0)
(0.000247675 -0.00305077 0)
(0.00184176 -0.00619996 0)
(0.00388529 -0.00728693 0)
(0.00596918 -0.0071482 0)
(0.00782093 -0.00646551 0)
(0.00937641 -0.00569816 0)
(0.010673 -0.00510496 0)
(0.0117802 -0.00480003 0)
(0.0127668 -0.00480516 0)
(0.0136865 -0.00508298 0)
(0.0145679 -0.00554567 0)
(0.0154045 -0.00603681 0)
(0.0161372 -0.00628589 0)
(0.0166277 -0.00584042 0)
(0.0166269 -0.00399536 0)
(0.0157441 0.000225239 0)
(0.0135437 0.00780682 0)
(0.0098215 0.0187854 0)
(0.00504852 0.0295869 0)
(0.000649453 0.0260459 0)
(0.000295929 -0.00520791 0)
(0.00207492 -0.0102225 0)
(0.00417337 -0.0116468 0)
(0.00615752 -0.0110958 0)
(0.00777598 -0.0097559 0)
(0.00901174 -0.00835357 0)
(0.00994332 -0.00725561 0)
(0.0106631 -0.00659355 0)
(0.0112459 -0.00636252 0)
(0.0117417 -0.00647925 0)
(0.0121743 -0.00679727 0)
(0.0125385 -0.00708041 0)
(0.0127882 -0.00693992 0)
(0.0128162 -0.00575354 0)
(0.0124306 -0.00261571 0)
(0.0113254 0.00357166 0)
(0.00927379 0.0135516 0)
(0.00625075 0.0266195 0)
(0.00281703 0.037547 0)
(0.000250404 0.0300153 0)
(0.000322489 -0.00752264 0)
(0.00205006 -0.0141994 0)
(0.00386494 -0.0156001 0)
(0.00538561 -0.0143258 0)
(0.0064439 -0.0121401 0)
(0.00709943 -0.0100283 0)
(0.00747853 -0.00842251 0)
(0.00769187 -0.00742915 0)
(0.0078136 -0.00698995 0)
(0.0078862 -0.00696905 0)
(0.00792919 -0.00717169 0)
(0.0079414 -0.00730427 0)
(0.00789329 -0.00689081 0)
(0.0077124 -0.00517942 0)
(0.00726767 -0.00111591 0)
(0.00634158 0.00644502 0)
(0.00484072 0.0179766 0)
(0.00285851 0.0320591 0)
(0.000906388 0.0423233 0)
(-5.0312e-05 0.0317347 0)
(0.000308753 -0.00970442 0)
(0.00166573 -0.0175075 0)
(0.00278612 -0.018429 0)
(0.00345491 -0.0161945 0)
(0.0036609 -0.0131319 0)
(0.00355406 -0.0104098 0)
(0.00328948 -0.00844746 0)
(0.00296927 -0.00727491 0)
(0.00264575 -0.0067614 0)
(0.00234142 -0.00672155 0)
(0.00206239 -0.00692499 0)
(0.00179986 -0.00703585 0)
(0.00152439 -0.00651167 0)
(0.00118379 -0.004509 0)
(0.000708548 0.000109221 0)
(6.16925e-05 0.0084455 0)
(-0.000642479 0.0206591 0)
(-0.00116886 0.0346806 0)
(-0.00118672 0.0436677 0)
(-0.00033922 0.0313248 0)
(0.000218677 -0.0112781 0)
(0.000705989 -0.0192311 0)
(0.000586002 -0.0192079 0)
(-3.58042e-05 -0.0159802 0)
(-0.000942282 -0.0122613 0)
(-0.00192512 -0.00924701 0)
(-0.00286604 -0.00723097 0)
(-0.00371852 -0.00612177 0)
(-0.00447752 -0.00571409 0)
(-0.00515452 -0.00578444 0)
(-0.00576717 -0.00607518 0)
(-0.00633792 -0.00621784 0)
(-0.00688905 -0.00563926 0)
(-0.00741955 -0.00350651 0)
(-0.00786092 0.00119323 0)
(-0.0079748 0.00927269 0)
(-0.00744225 0.0206567 0)
(-0.0059837 0.0332498 0)
(-0.00362879 0.0406735 0)
(-0.000691 0.0284314 0)
(-2.14171e-05 -0.0114001 0)
(-0.00111983 -0.0180198 0)
(-0.0030796 -0.0167512 0)
(-0.00531021 -0.0129569 0)
(-0.00739856 -0.00923176 0)
(-0.00919025 -0.00648485 0)
(-0.0106851 -0.00480963 0)
(-0.0119429 -0.00401299 0)
(-0.0130353 -0.00385462 0)
(-0.0140254 -0.00410647 0)
(-0.0149599 -0.00451887 0)
(-0.0158585 -0.00475089 0)
(-0.0166915 -0.00430652 0)
(-0.0173379 -0.00251898 0)
(-0.017524 0.00135939 0)
(-0.016801 0.00789625 0)
(-0.0147332 0.0170112 0)
(-0.0110721 0.0269983 0)
(-0.00620849 0.0327542 0)
(-0.00107381 0.0227769 0)
(-0.000534039 -0.00895796 0)
(-0.00383058 -0.0126555 0)
(-0.00773336 -0.010564 0)
(-0.0112628 -0.0072388 0)
(-0.0139796 -0.00446588 0)
(-0.0159485 -0.00266864 0)
(-0.0173915 -0.00174181 0)
(-0.0185262 -0.00145359 0)
(-0.0195234 -0.00159307 0)
(-0.020503 -0.00198912 0)
(-0.021533 -0.00247454 0)
(-0.0226163 -0.00283612 0)
(-0.0236605 -0.00277568 0)
(-0.0244405 -0.00190074 0)
(-0.0245555 0.000241411 0)
(-0.023394 0.00406997 0)
(-0.0203771 0.00966485 0)
(-0.0151894 0.0160583 0)
(-0.00840608 0.0201033 0)
(-0.00144848 0.0144327 0)
(-0.00137266 -0.00298097 0)
(-0.00535385 -0.00334978 0)
(-0.00900427 -0.00222387 0)
(-0.0116241 -0.00111183 0)
(-0.0131691 -0.000387627 0)
(-0.0139905 -1.70838e-05 0)
(-0.0144319 0.000110958 0)
(-0.0147355 8.93371e-05 0)
(-0.0150581 -2.25238e-05 0)
(-0.0155003 -0.000190618 0)
(-0.0161181 -0.000391665 0)
(-0.0169173 -0.000596733 0)
(-0.0178335 -0.00075702 0)
(-0.0186985 -0.000792977 0)
(-0.0191982 -0.000581135 0)
(-0.0188667 6.58305e-05 0)
(-0.0170827 0.0013411 0)
(-0.0133346 0.00317715 0)
(-0.0078875 0.00481831 0)
(-0.00191205 0.00412634 0)
)
;

boundaryField
{
    leftWall
    {
        type            fixedValue;
        value           uniform (0 0 0);
    }
    rightWall
    {
        type            fixedValue;
        value           uniform (0 0 0);
    }
    topWall
    {
        type            fixedValue;
        value           uniform (0 0 0);
    }
    bottomWall
    {
        type            fixedValue;
        value           uniform (0 0 0);
    }
    frontAndBackPlanes
    {
        type            empty;
    }
}


// ************************************************************************* //
