/*--------------------------------*- C++ -*----------------------------------*\
| =========                 |                                                 |
| \\      /  F ield         | OpenFOAM: The Open Source CFD Toolbox           |
|  \\    /   O peration     | Version:  2506                                  |
|   \\  /    A nd           | Website:  www.openfoam.com                      |
|    \\/     M anipulation  |                                                 |
\*---------------------------------------------------------------------------*/
FoamFile
{
    version     2.0;
    format      ascii;
    arch        "LSB;label=32;scalar=64";
    class       surfaceScalarField;
    location    "141";
    object      phi;
}
// * * * * * * * * * * * * * * * * * * * * * * * * * * * * * * * * * * * * * //

dimensions      [1 0 -1 0 0 0 0];

oriented        oriented;

internalField   nonuniform List<scalar> 
370
(
0.000383112
-0.000409759
0.000977639
-0.00059448
0.00148364
-0.000505934
0.0018218
-0.000338077
0.00200572
-0.000183821
0.0020829
-7.70843e-05
0.00210435
-2.13341e-05
0.00211115
-6.68711e-06
0.00213181
-2.05344e-05
0.00218563
-5.36834e-05
0.00228376
-9.7989e-05
0.00243183
-0.000147931
0.00262959
-0.000197608
0.00286515
-0.000235409
0.00310162
-0.000236306
0.00325164
-0.000149859
0.00315247
9.93448e-05
0.00259543
0.000557202
0.00139609
0.00119948
0.00139617
0.000492024
-0.000901757
0.00130642
-0.00140881
0.00207115
-0.00127057
0.0026488
-0.000915614
0.00302829
-0.00056319
0.00325221
-0.000300881
0.00337649
-0.000145487
0.00345151
-8.15856e-05
0.0035148
-8.3686e-05
0.00358854
-0.00012729
0.00368294
-0.000192249
0.00379657
-0.000261408
0.00391401
-0.000314904
0.00399953
-0.00032078
0.00398667
-0.000223283
0.00377148
6.54941e-05
0.00322099
0.000650002
0.00221544
0.00156291
0.000888876
0.00252619
0.00228511
0.000455164
-0.00135689
0.0011882
-0.00214176
0.00187443
-0.00195667
0.00239839
-0.00143944
0.00275395
-0.000918598
0.00297787
-0.000524655
0.00311481
-0.000282267
0.00320205
-0.000168674
0.00326507
-0.000146554
0.00331776
-0.000179829
0.00336391
-0.000238248
0.00339734
-0.000294683
0.0033995
-0.000316908
0.00333475
-0.000255864
0.00314675
-3.51234e-05
0.00276736
0.000445051
0.00214726
0.00127027
0.00130297
0.00240736
0.000436004
0.0033933
0.00272118
0.000375051
-0.0017319
0.000937473
-0.00270409
0.00142619
-0.00244525
0.0017719
-0.001785
0.00199124
-0.00113777
0.00212413
-0.000657371
0.00220584
-0.00036381
0.00225901
-0.000221672
0.00229508
-0.000182461
0.00231804
-0.000202628
0.00232699
-0.000247024
0.00231594
-0.000283472
0.0022711
-0.000271899
0.00216722
-0.000151821
0.00196787
0.000164401
0.00164007
0.000773024
0.00117191
0.00173861
0.000619363
0.00296007
0.00015108
0.00386171
0.00287232
0.000276414
-0.00200828
0.000624216
-0.00305178
0.000866472
-0.00268735
0.000992853
-0.00191121
0.00104574
-0.00119049
0.00106638
-0.000677832
0.00107749
-0.000374749
0.00108615
-0.000230153
0.00109146
-0.000187608
0.00109062
-0.00020162
0.00108103
-0.000237265
0.0010588
-0.000261072
0.00101519
-0.000228126
0.000933996
-7.04552e-05
0.000794307
0.000304263
0.000582979
0.000984528
0.000316165
0.0020056
6.50348e-05
0.00321136
-5.46095e-05
0.00398149
0.00281776
0.000156893
-0.00216513
0.000245984
-0.00314075
0.000208696
-0.00264991
0.000103923
-0.00180626
-7.32919e-06
-0.00107906
-9.62419e-05
-0.000588748
-0.000157754
-0.000313068
-0.000199564
-0.000188176
-0.000230558
-0.000156449
-0.000256565
-0.000175449
-0.000280947
-0.000212719
-0.000307315
-0.000234541
-0.00034172
-0.000193554
-0.000392118
-1.98883e-05
-0.000458203
0.000370522
-0.000526533
0.00105303
-0.000554693
0.00203393
-0.000474412
0.00313124
-0.000244867
0.00375207
0.00257294
-2.0142e-05
-0.00214494
-0.000251815
-0.00290895
-0.000603559
-0.00229801
-0.000949038
-0.00146061
-0.00122503
-0.000802904
-0.00142284
-0.000390767
-0.00156005
-0.000175705
-0.00165641
-9.16495e-05
-0.00172668
-8.60187e-05
-0.00178059
-0.000121389
-0.00182403
-0.000169116
-0.00186065
-0.00019777
-0.00189015
-0.000163886
-0.00190418
-5.69951e-06
-0.00187266
0.000339165
-0.00175319
0.000933737
-0.00148727
0.00176818
-0.001031
0.00267511
-0.000435513
0.00315669
0.00213747
-0.000291156
-0.00185373
-0.00094783
-0.00225215
-0.00164933
-0.00159635
-0.00222322
-0.000886561
-0.00263225
-0.000393712
-0.00290389
-0.000118969
-0.00308049
1.04918e-06
-0.00319642
2.44327e-05
-0.00327904
-3.246e-06
-0.00334495
-5.53318e-05
-0.00340243
-0.000111488
-0.00345053
-0.000149527
-0.00347534
-0.000138929
-0.00344226
-3.86426e-05
-0.00330005
0.000197102
-0.00297764
0.000611473
-0.00240953
0.0012002
-0.00158096
0.00184666
-0.000627352
0.00220318
0.00151016
-0.000718239
-0.00113543
-0.00186685
-0.00110342
-0.00283244
-0.000630607
-0.00346842
-0.000250424
-0.00382508
-3.69036e-05
-0.0040083
6.44037e-05
-0.0040945
8.73867e-05
-0.0041397
6.97704e-05
-0.00417713
3.43187e-05
-0.00422448
-7.85322e-06
-0.00428745
-4.83988e-05
-0.0043567
-8.01529e-05
-0.00440516
-9.0354e-05
-0.00438189
-6.17922e-05
-0.0042136
2.89176e-05
-0.00380252
0.000200513
-0.00306728
0.000465067
-0.00199821
0.00077768
-0.000779706
0.00098475
0.000730482
-0.00113537
-0.00223865
-0.00286911
-0.00311938
-0.00315614
-0.0030916
-0.00300408
-0.00293418
-0.00289974
-0.00290748
-0.00295577
-0.00303582
-0.00312608
-0.00318778
-0.00315878
-0.00295818
-0.00249304
-0.0017153
-0.000730502
)
;

boundaryField
{
    leftWall
    {
        type            calculated;
        value           nonuniform List<scalar> 10(0 0 0 0 0 0 0 0 0 8.67362e-19);
    }
    rightWall
    {
        type            calculated;
        value           nonuniform List<scalar> 10(0 2.1684e-19 0 0 4.33681e-19 0 0 0 0 0);
    }
    topWall
    {
        type            calculated;
        value           uniform 0;
    }
    bottomWall
    {
        type            calculated;
        value           uniform 0;
    }
    frontAndBackPlanes
    {
        type            empty;
    }
}


// ************************************************************************* //
