/*--------------------------------*- C++ -*----------------------------------*\
| =========                 |                                                 |
| \\      /  F ield         | OpenFOAM: The Open Source CFD Toolbox           |
|  \\    /   O peration     | Version:  2506                                  |
|   \\  /    A nd           | Website:  www.openfoam.com                      |
|    \\/     M anipulation  |                                                 |
\*---------------------------------------------------------------------------*/
FoamFile
{
    version     2.0;
    format      ascii;
    arch        "LSB;label=32;scalar=64";
    class       surfaceScalarField;
    location    "91";
    object      phi;
}
// * * * * * * * * * * * * * * * * * * * * * * * * * * * * * * * * * * * * * //

dimensions      [1 0 -1 0 0 0 0];

oriented        oriented;

internalField   nonuniform List<scalar> 
370
(
0.000210484
-0.000260377
0.000613262
-0.000402698
0.00098017
-0.00036679
0.00125128
-0.000270966
0.00142756
-0.000176125
0.00153613
-0.000108397
0.0016098
-7.34859e-05
0.00167746
-6.74693e-05
0.00176127
-8.36154e-05
0.00187716
-0.000115688
0.0020364
-0.000159026
0.00224632
-0.00020971
0.0025086
-0.000262053
0.00281251
-0.000303684
0.00312065
-0.000307911
0.00334306
-0.000222173
0.00329502
4.82797e-05
0.00275866
0.000536592
0.00151151
0.00124736
0.00151162
0.000352572
-0.000612907
0.000964548
-0.00101456
0.00157017
-0.000972252
0.00205999
-0.000760594
0.00241675
-0.000532679
0.00266537
-0.000356804
0.00284382
-0.000251718
0.0029882
-0.000211625
0.00312644
-0.000221632
0.00327685
-0.000265864
0.00344824
-0.000330182
0.00363937
-0.0004006
0.00383534
-0.000457783
0.00399964
-0.000467733
0.0040616
-0.000369617
0.00390677
-6.70908e-05
0.00339419
0.000561123
0.00236988
0.00156115
0.000965349
0.00265212
0.00247708
0.000372707
-0.000985558
0.000994506
-0.00163621
0.00160268
-0.00158021
0.00209449
-0.00125215
0.00245575
-0.000893672
0.00271022
-0.000611005
0.00289125
-0.000432482
0.00302849
-0.000348589
0.00314313
-0.000336006
0.00324733
-0.00036979
0.00334458
-0.000427164
0.00342908
-0.000484816
0.0034824
-0.000510822
0.00346761
-0.000452663
0.00332397
-0.000225689
0.00296955
0.000287618
0.00234114
0.00118982
0.00144613
0.00245644
0.00049626
0.00360222
0.00297345
0.000344636
-0.00133013
0.000887582
-0.00217897
0.0013868
-0.00207918
0.00176553
-0.00163059
0.00202692
-0.00115475
0.00220067
-0.000784445
0.00231718
-0.000548675
0.00239844
-0.000429538
0.00245731
-0.000394576
0.00249971
-0.00041188
0.00252638
-0.000453527
0.00253264
-0.000490767
0.00250522
-0.000483093
0.00241728
-0.000364413
0.00222664
-3.47373e-05
0.00188789
0.000626689
0.00138092
0.0016971
0.000757792
0.00307986
0.000202463
0.00415779
0.00317602
0.00028834
-0.00161839
0.000690229
-0.00258066
0.0010099
-0.00239856
0.00121296
-0.00183332
0.00132653
-0.00126798
0.00138626
-0.000843843
0.00141717
-0.000579251
0.0014318
-0.000443842
0.00143466
-0.000397117
0.00142688
-0.000403775
0.00140835
-0.000434679
0.00137675
-0.000458844
0.00132396
-0.000429981
0.00123215
-0.000272273
0.0010739
0.00012386
0.000829891
0.000871032
0.000508213
0.00201911
0.000181362
0.00340701
-1.39879e-05
0.00435338
0.00316213
0.000198167
-0.00181648
0.00039011
-0.00277238
0.000464526
-0.00247267
0.000447286
-0.00181574
0.000388865
-0.00120922
0.000322981
-0.00077762
0.000262629
-0.000518569
0.000208624
-0.000389511
0.000158156
-0.000346327
0.000109196
-0.000354493
6.05867e-05
-0.000385748
9.54557e-06
-0.00040748
-5.07739e-05
-0.000369336
-0.000130472
-0.000192239
-0.000235015
0.000228749
-0.000351595
0.000987961
-0.000437553
0.0021054
-0.00041781
0.00338758
-0.000235214
0.00417102
0.00292701
4.18606e-05
-0.00185825
-7.39386e-05
-0.00265633
-0.000316769
-0.00222953
-0.000592226
-0.00153995
-0.000838928
-0.000962184
-0.00103779
-0.000578431
-0.00119365
-0.000362389
-0.00131829
-0.000264556
-0.00142179
-0.000242512
-0.00151071
-0.000265257
-0.00158963
-0.000306513
-0.00166264
-0.000334157
-0.00173179
-0.000299869
-0.00179028
-0.000133424
-0.00180972
0.000248527
-0.0017394
0.000917968
-0.00151115
0.00187749
-0.0010706
0.00294731
-0.000462429
0.00356306
0.00246466
-0.000222683
-0.00163546
-0.000770948
-0.00210781
-0.00139411
-0.00160605
-0.00193707
-0.000996661
-0.00235413
-0.000544801
-0.0026575
-0.000274752
-0.00287781
-0.000141762
-0.00304391
-9.81606e-05
-0.0031776
-0.000108516
-0.00329373
-0.000148839
-0.00340044
-0.000199506
-0.00349798
-0.00023633
-0.0035734
-0.000224157
-0.00359231
-0.000114218
-0.00349381
0.000150321
-0.00319611
0.000620559
-0.00261991
0.00130156
-0.00174045
0.00206811
-0.0006998
0.00252259
0.00176494
-0.000631184
-0.00100416
-0.00168532
-0.00105342
-0.00262361
-0.00066744
-0.00329136
-0.00032859
-0.00371651
-0.000119331
-0.00397208
-1.88774e-05
-0.00413221
1.86555e-05
-0.0042456
1.55106e-05
-0.00434448
-9.3689e-06
-0.00444929
-4.37706e-05
-0.00456641
-8.21282e-05
-0.00468874
-0.00011376
-0.00478842
-0.000124242
-0.00480945
-9.29478e-05
-0.00466946
1.05611e-05
-0.00425288
0.000204209
-0.00346234
0.000511228
-0.00227725
0.000883214
-0.00089795
0.00114344
0.000867051
-0.00100404
-0.00205719
-0.00272431
-0.00305259
-0.00317161
-0.0031902
-0.00317128
-0.00315551
-0.00316463
-0.00320818
-0.00329009
-0.00340364
-0.00352769
-0.00362046
-0.00360973
-0.00340536
-0.00289398
-0.00201064
-0.000867094
)
;

boundaryField
{
    leftWall
    {
        type            calculated;
        value           nonuniform List<scalar> 10(0 -1.35525e-20 0 0 0 0 0 -4.33681e-19 0 0);
    }
    rightWall
    {
        type            calculated;
        value           nonuniform List<scalar> 10(0 -2.1684e-19 0 -4.33681e-19 -4.33681e-19 0 0 0 -4.33681e-19 0);
    }
    topWall
    {
        type            calculated;
        value           uniform 0;
    }
    bottomWall
    {
        type            calculated;
        value           uniform 0;
    }
    frontAndBackPlanes
    {
        type            empty;
    }
}


// ************************************************************************* //
