/*--------------------------------*- C++ -*----------------------------------*\
| =========                 |                                                 |
| \\      /  F ield         | OpenFOAM: The Open Source CFD Toolbox           |
|  \\    /   O peration     | Version:  2506                                  |
|   \\  /    A nd           | Website:  www.openfoam.com                      |
|    \\/     M anipulation  |                                                 |
\*---------------------------------------------------------------------------*/
FoamFile
{
    version     2.0;
    format      ascii;
    arch        "LSB;label=32;scalar=64";
    class       volScalarField;
    location    "41.2";
    object      p_rgh;
}
// * * * * * * * * * * * * * * * * * * * * * * * * * * * * * * * * * * * * * //

dimensions      [1 -1 -2 0 0 0 0];

internalField   nonuniform List<scalar> 
200
(
100000
100000
100000
100000
100000
100000
100000
100000
100000
100000
100000
100000
99999.9
99999.9
99999.8
99999.7
99999.5
99999.2
99998.9
99998.2
100000
100000
100000
100000
100000
100000
100000
100000
100000
100000
100000
100000
99999.9
99999.9
99999.8
99999.8
99999.6
99999.3
99998.6
99997
100000
100000
100000
100000
100000
100000
100000
99999.9
99999.9
99999.9
99999.9
99999.9
99999.9
99999.9
99999.9
99999.8
99999.7
99999.2
99998
99995.3
100000
100000
100000
99999.9
99999.8
99999.8
99999.8
99999.7
99999.7
99999.7
99999.8
99999.8
99999.8
99999.8
99999.9
99999.8
99999.6
99998.9
99997
99993.4
100000
100000
99999.8
99999.7
99999.5
99999.4
99999.4
99999.4
99999.4
99999.4
99999.4
99999.5
99999.6
99999.7
99999.8
99999.7
99999.4
99998.3
99995.8
99991.3
100000
100000
99999.6
99999.2
99998.9
99998.8
99998.7
99998.7
99998.8
99998.8
99998.9
99999
99999.2
99999.4
99999.5
99999.4
99998.8
99997.3
99994.3
99989.1
100001
99999.9
99999.2
99998.5
99998.1
99997.9
99997.8
99997.8
99997.8
99997.8
99997.9
99998
99998.2
99998.4
99998.4
99998.2
99997.5
99995.8
99992.4
99987.1
100001
99999.7
99998.5
99997.6
99997
99996.6
99996.4
99996.3
99996.2
99996.1
99996
99996
99996.1
99996.1
99996.1
99995.9
99995.1
99993.4
99990.3
99985.1
100001
99999.5
99997.8
99996.5
99995.6
99995
99994.5
99994.1
99993.7
99993.4
99993.2
99993
99992.8
99992.6
99992.5
99992.2
99991.6
99990.3
99987.7
99983.3
100002
99999.4
99997.5
99995.9
99994.8
99993.8
99993.1
99992.5
99991.9
99991.4
99990.9
99990.4
99989.9
99989.5
99989
99988.6
99988
99986.9
99985
99981.8
)
;

boundaryField
{
    leftWall
    {
        type            fixedFluxPressure;
        gradient        nonuniform List<scalar> 10(-0.0105851 0.0689304 0.486358 1.62033 3.95303 7.99196 14.2535 23.6285 36.0482 45.5377);
        value           nonuniform List<scalar> 10(100000 100000 100000 100000 100000 100001 100001 100002 100002 100003);
    }
    rightWall
    {
        type            fixedFluxPressure;
        gradient        nonuniform List<scalar> 10(-17.6491 -49.7538 -75.915 -96.8266 -112.078 -122.216 -127.89 -125.191 -109.598 -82.9633);
        value           nonuniform List<scalar> 10(99997.8 99995.8 99993.4 99990.9 99988.5 99986.1 99983.9 99982 99980.6 99979.7);
    }
    topWall
    {
        type            fixedFluxPressure;
        gradient        uniform 0;
        value           nonuniform List<scalar> 
20
(
100000
100000
100000
100000
100000
100000
100000
100000
100000
100000
100000
100000
99999.9
99999.9
99999.8
99999.7
99999.5
99999.2
99998.9
99998.2
)
;
    }
    bottomWall
    {
        type            fixedFluxPressure;
        gradient        uniform 0;
        value           nonuniform List<scalar> 
20
(
100002
99999.4
99997.5
99995.9
99994.8
99993.8
99993.1
99992.5
99991.9
99991.4
99990.9
99990.4
99989.9
99989.5
99989
99988.6
99988
99986.9
99985
99981.8
)
;
    }
    frontAndBackPlanes
    {
        type            empty;
    }
}


// ************************************************************************* //
