/*--------------------------------*- C++ -*----------------------------------*\
| =========                 |                                                 |
| \\      /  F ield         | OpenFOAM: The Open Source CFD Toolbox           |
|  \\    /   O peration     | Version:  2506                                  |
|   \\  /    A nd           | Website:  www.openfoam.com                      |
|    \\/     M anipulation  |                                                 |
\*---------------------------------------------------------------------------*/
FoamFile
{
    version     2.0;
    format      ascii;
    arch        "LSB;label=32;scalar=64";
    class       volScalarField;
    location    "33.2";
    object      T;
}
// * * * * * * * * * * * * * * * * * * * * * * * * * * * * * * * * * * * * * //

dimensions      [0 0 0 1 0 0 0];

internalField   nonuniform List<scalar> 
200
(
273.15
273.149
273.148
273.147
273.147
273.146
273.146
273.146
273.145
273.145
273.145
273.145
273.146
273.147
273.149
273.157
273.179
273.241
273.406
273.792
273.15
273.149
273.148
273.148
273.147
273.147
273.147
273.147
273.146
273.146
273.146
273.146
273.145
273.146
273.147
273.153
273.172
273.233
273.408
273.81
273.15
273.149
273.149
273.149
273.15
273.15
273.15
273.151
273.151
273.15
273.15
273.149
273.148
273.147
273.147
273.152
273.173
273.241
273.429
273.835
273.15
273.15
273.151
273.153
273.156
273.159
273.161
273.162
273.162
273.162
273.16
273.158
273.155
273.151
273.15
273.155
273.18
273.258
273.458
273.861
273.151
273.152
273.156
273.163
273.17
273.177
273.182
273.185
273.186
273.184
273.181
273.176
273.169
273.162
273.159
273.165
273.195
273.284
273.496
273.888
273.152
273.157
273.166
273.181
273.196
273.21
273.219
273.223
273.224
273.221
273.215
273.205
273.194
273.183
273.179
273.189
273.228
273.333
273.551
273.916
273.153
273.163
273.183
273.21
273.238
273.26
273.273
273.279
273.279
273.275
273.268
273.259
273.248
273.24
273.242
273.26
273.308
273.414
273.617
273.942
273.156
273.175
273.209
273.252
273.293
273.324
273.344
273.356
273.362
273.365
273.366
273.365
273.363
273.363
273.369
273.389
273.436
273.53
273.7
273.972
273.159
273.187
273.237
273.296
273.353
273.399
273.433
273.459
273.479
273.496
273.51
273.521
273.531
273.541
273.55
273.57
273.608
273.68
273.806
274.01
273.159
273.189
273.241
273.307
273.372
273.43
273.479
273.521
273.557
273.588
273.615
273.641
273.666
273.689
273.713
273.74
273.776
273.83
273.917
274.052
)
;

boundaryField
{
    leftWall
    {
        type            fixedValue;
        value           uniform 273.15;
    }
    rightWall
    {
        type            customNeumannDirichletCoupledBoundary;
        refValue        nonuniform List<scalar> 10(274.125 274.126 274.127 274.129 274.131 274.133 274.135 274.137 274.139 274.141);
        refGradient     uniform 0;
        valueFraction   uniform 1;
        source          uniform 0;
        value           nonuniform List<scalar> 10(274.125 274.126 274.127 274.129 274.131 274.133 274.135 274.137 274.139 274.141);
        kappaMethod     fluidThermo;
    }
    topWall
    {
        type            zeroGradient;
    }
    bottomWall
    {
        type            zeroGradient;
    }
    frontAndBackPlanes
    {
        type            empty;
    }
}


// ************************************************************************* //
