/*--------------------------------*- C++ -*----------------------------------*\
| =========                 |                                                 |
| \\      /  F ield         | OpenFOAM: The Open Source CFD Toolbox           |
|  \\    /   O peration     | Version:  2506                                  |
|   \\  /    A nd           | Website:  www.openfoam.com                      |
|    \\/     M anipulation  |                                                 |
\*---------------------------------------------------------------------------*/
FoamFile
{
    version     2.0;
    format      ascii;
    arch        "LSB;label=32;scalar=64";
    class       surfaceScalarField;
    location    "124";
    object      phi;
}
// * * * * * * * * * * * * * * * * * * * * * * * * * * * * * * * * * * * * * //

dimensions      [1 0 -1 0 0 0 0];

oriented        oriented;

internalField   nonuniform List<scalar> 
370
(
0.000335202
-0.000368237
0.00087637
-0.000541109
0.00134311
-0.000466653
0.0016614
-0.000318188
0.00184152
-0.000180007
0.0019256
-8.3948e-05
0.00195973
-3.39952e-05
0.00198178
-2.19013e-05
0.00201894
-3.70037e-05
0.00208935
-7.02479e-05
0.00220413
-0.000114615
0.00236935
-0.000165046
0.0025853
-0.000215764
0.00284054
-0.000255057
0.00309831
-0.000257579
0.00327096
-0.000172456
0.00318891
8.22495e-05
0.00264032
0.000548793
0.00142896
0.00121153
0.00142905
0.000453781
-0.000821987
0.00121253
-0.00129978
0.00193314
-0.00118715
0.00248573
-0.000870636
0.00285758
-0.000551711
0.00308664
-0.000312856
0.00322421
-0.000171407
0.00331695
-0.000114489
0.00339951
-0.000119394
0.00349324
-0.000163809
0.00360798
-0.00022918
0.00374236
-0.000299249
0.0038812
-0.000354422
0.00398867
-0.000362346
0.00399721
-0.000265929
0.00380091
2.40454e-05
0.00326296
0.000620397
0.00225474
0.00155721
0.000908758
0.00255768
0.00233789
0.000433024
-0.00125497
0.00113619
-0.00200284
0.00180145
-0.00185226
0.00231666
-0.00138567
0.00267343
-0.000908301
0.00290507
-0.000544309
0.00305325
-0.000319403
0.00315329
-0.000214338
0.00322953
-0.000195445
0.00329543
-0.000229521
0.00335472
-0.000288278
0.00340134
-0.000345682
0.00341685
-0.000369739
0.00336538
-0.000310676
0.0031896
-8.99538e-05
0.00281645
0.000397396
0.00219517
0.00124189
0.00133861
0.00241396
0.000450903
0.00344556
0.00278887
0.000367518
-0.00162245
0.000925631
-0.00256083
0.001418
-0.00234446
0.00177319
-0.00174066
0.00200414
-0.00113904
0.00214805
-0.000688006
0.00223891
-0.000410063
0.00229935
-0.000274564
0.00234121
-0.000237107
0.002369
-0.000257108
0.00238225
-0.000301318
0.00237532
-0.00033855
0.00233455
-0.000328767
0.00223425
-0.000210166
0.00203642
0.000108094
0.00170508
0.000728946
0.00122629
0.0017209
0.000655035
0.00298542
0.00016407
0.00393669
0.00295302
0.000280604
-0.001903
0.00064418
-0.00292427
0.00090809
-0.00260818
0.00105562
-0.00188798
0.00112522
-0.00120842
0.0011564
-0.000718965
0.00117278
-0.00042623
0.00118304
-0.00028461
0.00118771
-0.000241571
0.00118496
-0.000254147
0.00117282
-0.000288966
0.00114779
-0.000313311
0.00110124
-0.000282015
0.00101646
-0.000125174
0.00087075
0.000254022
0.000649748
0.000950167
0.000367427
0.00200343
9.54053e-05
0.00325764
-4.45469e-05
0.0040768
0.00290853
0.000169737
-0.00207268
0.000286885
-0.00304128
0.000279846
-0.00260095
0.000198492
-0.00180641
0.000101224
-0.00111094
1.90316e-05
-0.000636557
-4.17588e-05
-0.00036523
-8.63629e-05
-0.000239799
-0.00012216
-0.000205569
-0.00015406
-0.000222042
-0.000184842
-0.000257979
-0.000217885
-0.000280065
-0.000259459
-0.000240234
-0.000317834
-6.65871e-05
-0.000394788
0.000331193
-0.000476987
0.00103259
-0.000521827
0.00204849
-0.000458831
0.00319484
-0.000242299
0.00386042
0.00266629
-4.23026e-06
-0.00206839
-0.000203304
-0.00284205
-0.000525455
-0.0022786
-0.000852188
-0.00147947
-0.00112012
-0.000842794
-0.00131794
-0.000438533
-0.00145916
-0.000223811
-0.00156208
-0.00013668
-0.0016406
-0.000126848
-0.00170345
-0.00015899
-0.00175615
-0.000205082
-0.00180244
-0.000233582
-0.00184267
-0.000199805
-0.00186837
-4.06835e-05
-0.00185094
0.000313976
-0.00174552
0.000927369
-0.00149104
0.00179421
-0.00104042
0.0027444
-0.000442494
0.00326263
0.00222386
-0.000272077
-0.00179625
-0.000900007
-0.00221396
-0.00158051
-0.0015979
-0.00214575
-0.000914035
-0.0025563
-0.000432038
-0.00283564
-0.000159002
-0.00302268
-3.65797e-05
-0.00315158
-7.59224e-06
-0.00324736
-3.0881e-05
-0.00332617
-7.99911e-05
-0.00339637
-0.000134699
-0.00345734
-0.000172434
-0.00349542
-0.000161543
-0.00347689
-5.90351e-05
-0.00334667
0.00018394
-0.00303176
0.000612636
-0.00246285
0.00122548
-0.00162215
0.00190386
-0.00064636
0.00228696
0.00157754
-0.000695049
-0.00110113
-0.00181852
-0.00109033
-0.00277646
-0.000639765
-0.00342008
-0.000270221
-0.00379452
-5.74024e-05
-0.00399565
4.23214e-05
-0.00410175
6.97017e-05
-0.0041648
5.56239e-05
-0.00421796
2.24482e-05
-0.00428024
-1.75529e-05
-0.00435722
-5.75627e-05
-0.00444031
-8.9193e-05
-0.00450228
-9.94211e-05
-0.004491
-7.01726e-05
-0.00433065
2.37321e-05
-0.003919
0.000201127
-0.0031702
0.00047681
-0.0020714
0.000805184
-0.000810912
0.00102656
0.000766669
-0.00110105
-0.00219121
-0.00283079
-0.00310082
-0.00315803
-0.00311554
-0.00304567
-0.00298988
-0.00296729
-0.0029847
-0.00304212
-0.00313119
-0.00323049
-0.00330055
-0.00327671
-0.00307549
-0.00259858
-0.00179332
-0.000766694
)
;

boundaryField
{
    leftWall
    {
        type            calculated;
        value           nonuniform List<scalar> 10(0 0 -5.42101e-20 0 2.1684e-19 0 4.33681e-19 0 -8.67362e-19 0);
    }
    rightWall
    {
        type            calculated;
        value           nonuniform List<scalar> 10(0 0 0 0 0 0 0 0 0 -2.1684e-19);
    }
    topWall
    {
        type            calculated;
        value           uniform 0;
    }
    bottomWall
    {
        type            calculated;
        value           uniform 0;
    }
    frontAndBackPlanes
    {
        type            empty;
    }
}


// ************************************************************************* //
