/*--------------------------------*- C++ -*----------------------------------*\
| =========                 |                                                 |
| \\      /  F ield         | OpenFOAM: The Open Source CFD Toolbox           |
|  \\    /   O peration     | Version:  2506                                  |
|   \\  /    A nd           | Website:  www.openfoam.com                      |
|    \\/     M anipulation  |                                                 |
\*---------------------------------------------------------------------------*/
FoamFile
{
    version     2.0;
    format      ascii;
    arch        "LSB;label=32;scalar=64";
    class       volVectorField;
    location    "124";
    object      U;
}
// * * * * * * * * * * * * * * * * * * * * * * * * * * * * * * * * * * * * * //

dimensions      [0 1 -1 0 0 0 0];

internalField   nonuniform List<vector> 
200
(
(0.000503104 -0.00125742 0)
(0.00252667 -0.00160008 0)
(0.00466863 -0.00117613 0)
(0.00636732 -0.000632216 0)
(0.00740745 -0.000214222 0)
(0.00792787 2.52678e-05 0)
(0.00813842 0.000108478 0)
(0.00822563 7.9323e-05 0)
(0.00832781 -2.13475e-05 0)
(0.00853856 -0.00016593 0)
(0.00891753 -0.000341906 0)
(0.00950095 -0.000546812 0)
(0.0103063 -0.000777919 0)
(0.011321 -0.00101471 0)
(0.0124608 -0.00118825 0)
(0.0134737 -0.0011272 0)
(0.0138047 -0.000479372 0)
(0.0125793 0.00126705 0)
(0.00893293 0.00416886 0)
(0.00267414 0.00568093 0)
(0.000541714 -0.00496489 0)
(0.00345817 -0.0076732 0)
(0.00663579 -0.00684844 0)
(0.00936117 -0.00486265 0)
(0.0112997 -0.00292196 0)
(0.0125206 -0.00151311 0)
(0.0132399 -0.000727848 0)
(0.0136799 -0.000477158 0)
(0.0140167 -0.000616739 0)
(0.014368 -0.00101094 0)
(0.0147985 -0.00155444 0)
(0.0153265 -0.00216208 0)
(0.0159213 -0.00273152 0)
(0.0164843 -0.00307771 0)
(0.0168123 -0.00283888 0)
(0.0165466 -0.00137325 0)
(0.0151097 0.002239 0)
(0.0118841 0.00863915 0)
(0.0068627 0.016305 0)
(0.00116004 0.0163312 0)
(0.000512558 -0.0087375 0)
(0.00326829 -0.0139725 0)
(0.00620173 -0.0129355 0)
(0.00872495 -0.00966101 0)
(0.0105547 -0.00629149 0)
(0.0117563 -0.00371824 0)
(0.0125123 -0.00214166 0)
(0.0129987 -0.00143887 0)
(0.0133455 -0.00137687 0)
(0.0136318 -0.00172013 0)
(0.0138931 -0.00226658 0)
(0.0141254 -0.00283215 0)
(0.014281 -0.00319308 0)
(0.0142518 -0.00299409 0)
(0.0138448 -0.00164503 0)
(0.0127509 0.00171495 0)
(0.0106931 0.0079271 0)
(0.00753294 0.0170338 0)
(0.00370268 0.0257788 0)
(0.000419994 0.0219652 0)
(0.000449326 -0.0121264 0)
(0.00272835 -0.0193704 0)
(0.00497161 -0.0179352 0)
(0.00677497 -0.0134587 0)
(0.007996 -0.00888563 0)
(0.00875286 -0.0053959 0)
(0.00921498 -0.00321957 0)
(0.00951074 -0.00216179 0)
(0.00971324 -0.00189748 0)
(0.00985471 -0.00211143 0)
(0.00994238 -0.00253719 0)
(0.00996454 -0.00292658 0)
(0.009884 -0.0029701 0)
(0.00962156 -0.00219139 0)
(0.00903356 0.000132541 0)
(0.00794725 0.00488345 0)
(0.00624019 0.0127342 0)
(0.0039519 0.0231229 0)
(0.00155254 0.0315322 0)
(5.26017e-05 0.0244508 0)
(0.000370927 -0.0148681 0)
(0.00200495 -0.0232991 0)
(0.00332803 -0.0211799 0)
(0.00418593 -0.0156216 0)
(0.00462016 -0.0101761 0)
(0.00480568 -0.0061436 0)
(0.00488702 -0.00367559 0)
(0.00493436 -0.0024603 0)
(0.00496343 -0.00208762 0)
(0.00496801 -0.00219936 0)
(0.00493923 -0.00250942 0)
(0.00486728 -0.00274536 0)
(0.00472968 -0.00254547 0)
(0.00447453 -0.00134964 0)
(0.00400185 0.00164067 0)
(0.00323534 0.00726581 0)
(0.0021524 0.0159916 0)
(0.00091215 0.0267176 0)
(-7.98657e-05 0.0341918 0)
(-0.000177742 0.0249125 0)
(0.000274496 -0.0168048 0)
(0.00107292 -0.0254246 0)
(0.00126491 -0.0223628 0)
(0.00103829 -0.0159583 0)
(0.000632217 -0.010074 0)
(0.000238156 -0.00592143 0)
(-6.40658e-05 -0.00347837 0)
(-0.000279039 -0.00231101 0)
(-0.000441819 -0.00195623 0)
(-0.000579648 -0.00205522 0)
(-0.000707766 -0.00233337 0)
(-0.000837813 -0.00251 0)
(-0.00098989 -0.00218463 0)
(-0.00119632 -0.0007452 0)
(-0.00149431 0.00261798 0)
(-0.00185242 0.00864019 0)
(-0.00215261 0.0175068 0)
(-0.00215137 0.027714 0)
(-0.00160007 0.0339191 0)
(-0.000364083 0.0237204 0)
(0.00014567 -0.017587 0)
(-0.000235748 -0.0252429 0)
(-0.00147557 -0.0210748 0)
(-0.00291507 -0.0142621 0)
(-0.00418819 -0.00852739 0)
(-0.00516187 -0.00473056 0)
(-0.00585772 -0.0026189 0)
(-0.00635344 -0.0016806 0)
(-0.00672152 -0.00146599 0)
(-0.00700997 -0.00165062 0)
(-0.00724802 -0.00197899 0)
(-0.00745628 -0.00216781 0)
(-0.00764786 -0.00181136 0)
(-0.0078108 -0.000329856 0)
(-0.00786897 0.00297491 0)
(-0.00765315 0.00867348 0)
(-0.00691933 0.0167524 0)
(-0.00542824 0.0256591 0)
(-0.00320504 0.0305713 0)
(-0.000580939 0.0208634 0)
(-0.000197623 -0.0165571 0)
(-0.00233715 -0.0218752 0)
(-0.00523638 -0.0168468 0)
(-0.007931 -0.0104038 0)
(-0.0099845 -0.00552317 0)
(-0.0114008 -0.00256684 0)
(-0.0123418 -0.00109559 0)
(-0.0129743 -0.000589091 0)
(-0.0134251 -0.000649793 0)
(-0.0137797 -0.00100503 0)
(-0.0140901 -0.00143875 0)
(-0.0143759 -0.00170848 0)
(-0.0146136 -0.00147844 0)
(-0.0147109 -0.000296552 0)
(-0.0144619 0.0023549 0)
(-0.0135809 0.0068993 0)
(-0.0117316 0.0132731 0)
(-0.00871444 0.0202061 0)
(-0.00482284 0.0239322 0)
(-0.000810307 0.0162675 0)
(-0.000842913 -0.0125962 0)
(-0.00534244 -0.0144658 0)
(-0.00983285 -0.00954609 0)
(-0.0132366 -0.00470011 0)
(-0.0153285 -0.00158082 0)
(-0.01646 -2.24974e-05 0)
(-0.0170386 0.000510874 0)
(-0.0173509 0.000466277 0)
(-0.0175718 0.000125221 0)
(-0.0178049 -0.000345256 0)
(-0.0181008 -0.000822437 0)
(-0.0184579 -0.001171 0)
(-0.0188071 -0.00120194 0)
(-0.0189891 -0.000655207 0)
(-0.0187186 0.000786745 0)
(-0.0175853 0.00343285 0)
(-0.0151524 0.00730532 0)
(-0.011187 0.011685 0)
(-0.0061187 0.0143042 0)
(-0.00103084 0.010045 0)
(-0.00202041 -0.00431128 0)
(-0.00714421 -0.00374387 0)
(-0.0107838 -0.00171004 0)
(-0.012677 -0.000285802 0)
(-0.0132799 0.000380396 0)
(-0.0132264 0.000565211 0)
(-0.0129365 0.000515523 0)
(-0.0126436 0.000373953 0)
(-0.0124654 0.000202869 0)
(-0.0124519 2.42178e-05 0)
(-0.0126162 -0.000151797 0)
(-0.0129418 -0.000311872 0)
(-0.0133713 -0.00042991 0)
(-0.01378 -0.000456881 0)
(-0.0139471 -0.000309193 0)
(-0.0135431 0.000144117 0)
(-0.0121333 0.00100966 0)
(-0.00937067 0.00223327 0)
(-0.00546832 0.00330211 0)
(-0.00129521 0.00278078 0)
)
;

boundaryField
{
    leftWall
    {
        type            fixedValue;
        value           uniform (0 0 0);
    }
    rightWall
    {
        type            fixedValue;
        value           uniform (0 0 0);
    }
    topWall
    {
        type            fixedValue;
        value           uniform (0 0 0);
    }
    bottomWall
    {
        type            fixedValue;
        value           uniform (0 0 0);
    }
    frontAndBackPlanes
    {
        type            empty;
    }
}


// ************************************************************************* //
