/*--------------------------------*- C++ -*----------------------------------*\
| =========                 |                                                 |
| \\      /  F ield         | OpenFOAM: The Open Source CFD Toolbox           |
|  \\    /   O peration     | Version:  2506                                  |
|   \\  /    A nd           | Website:  www.openfoam.com                      |
|    \\/     M anipulation  |                                                 |
\*---------------------------------------------------------------------------*/
FoamFile
{
    version     2.0;
    format      ascii;
    arch        "LSB;label=32;scalar=64";
    class       surfaceScalarField;
    location    "102";
    object      phi;
}
// * * * * * * * * * * * * * * * * * * * * * * * * * * * * * * * * * * * * * //

dimensions      [1 0 -1 0 0 0 0];

oriented        oriented;

internalField   nonuniform List<scalar> 
370
(
0.000256917
-0.000300434
0.000711087
-0.000454096
0.00111467
-0.000403471
0.00140243
-0.000287634
0.00157899
-0.000176405
0.00167724
-9.80902e-05
0.00173511
-5.76987e-05
0.00178497
-4.96806e-05
0.00185093
-6.57723e-05
0.00194965
-9.85247e-05
0.00209227
-0.000142412
0.00228559
-0.000193111
0.00253077
-0.000244972
0.00281695
-0.000285964
0.00310715
-0.000289976
0.00331249
-0.000205107
0.00325355
5.9175e-05
0.00271431
0.000539462
0.00148129
0.00123323
0.0014814
0.000390892
-0.000691288
0.00105827
-0.00112137
0.00170699
-0.00105204
0.00221981
-0.00080028
0.00258126
-0.000537671
0.00282134
-0.000337979
0.00298323
-0.000219393
0.0031071
-0.000173347
0.00322341
-0.000181875
0.00335167
-0.000226567
0.00350106
-0.000291589
0.00367032
-0.000362148
0.00384451
-0.000418939
0.00398753
-0.000428759
0.00403003
-0.000332238
0.00386092
-3.57618e-05
0.0033405
0.000579836
0.00232411
0.00155609
0.000943158
0.00261439
0.00242466
0.000396091
-0.00108733
0.00104944
-0.00177458
0.00167976
-0.00168218
0.00218059
-0.00130089
0.00253991
-0.000896759
0.00278518
-0.000583008
0.002953
-0.000386973
0.00307525
-0.000295353
0.00317439
-0.000280774
0.00326312
-0.000315055
0.00334507
-0.000373289
0.00341436
-0.000431191
0.00345262
-0.000456956
0.00342346
-0.000399349
0.00326779
-0.000176307
0.00290651
0.000325775
0.00228174
0.00120487
0.00140265
0.00243543
0.000477869
0.00353938
0.00290263
0.000354075
-0.00144135
0.000903886
-0.00232423
0.00140141
-0.00217948
0.00177172
-0.00167094
0.00202171
-0.00114647
0.00218397
-0.000744998
0.00229035
-0.000493081
0.00236315
-0.000367881
0.00241492
-0.000332278
0.00245109
-0.000350953
0.00247198
-0.000393921
0.00247261
-0.000431544
0.00243951
-0.000423588
0.00234617
-0.000305739
0.00215214
1.80052e-05
0.00181562
0.000662573
0.00131943
0.00170133
0.000716712
0.0030384
0.000186968
0.00406933
0.00308969
0.000286157
-0.00172744
0.000674527
-0.00271242
0.000973703
-0.00247841
0.00115599
-0.00185294
0.00125294
-0.00124313
0.00130178
-0.000793553
0.00132703
-0.000518042
0.00133979
-0.000380359
0.00134308
-0.000335285
0.00133688
-0.000344483
0.00132045
-0.000377209
0.00129101
-0.000401827
0.00124015
-0.000372454
0.00115037
-0.000215669
0.000995665
0.000172996
0.000759898
0.000898631
0.000452991
0.00200853
0.000147124
0.00334454
-2.66442e-05
0.00424331
0.00306313
0.00018789
-0.00191526
0.000352003
-0.00287634
0.000395601
-0.00252174
0.000353833
-0.00181089
0.000280501
-0.00116951
0.000208444
-0.000721206
0.000148175
-0.00045749
9.80333e-05
-0.000329938
5.33848e-05
-0.000290361
1.10567e-05
-0.00030188
-3.07402e-05
-0.000335138
-7.49915e-05
-0.000357301
-0.000128313
-0.000318853
-0.000200046
-0.00014365
-0.000294247
0.000267492
-0.000398236
0.00100292
-0.000469188
0.00207977
-0.000433468
0.00330908
-0.000237967
0.00404801
0.00282524
2.48051e-05
-0.00193998
-0.000122795
-0.00272853
-0.00039628
-0.00224799
-0.000691575
-0.00151531
-0.000946311
-0.000914486
-0.00114439
-0.000522852
-0.00129409
-0.000307518
-0.00140977
-0.000213987
-0.0015031
-0.000196759
-0.00158154
-0.000223173
-0.00165008
-0.000266331
-0.0017127
-0.000294413
-0.00177072
-0.000260563
-0.00181659
-9.75051e-05
-0.00182202
0.0002732
-0.00173875
0.000919932
-0.00150139
0.00184269
-0.00105806
0.00286599
-0.000454566
0.00344471
0.00237075
-0.000241672
-0.00169822
-0.000820794
-0.00214919
-0.00146619
-0.00160232
-0.00201767
-0.000963551
-0.00243183
-0.000500048
-0.00272503
-0.00022938
-0.00293191
-0.000100378
-0.00308309
-6.25569e-05
-0.00320145
-7.81388e-05
-0.00330265
-0.000121723
-0.00339485
-0.000173886
-0.00347795
-0.00021107
-0.00353875
-0.000199514
-0.00354325
-9.27542e-05
-0.00343276
0.000162955
-0.00312912
0.000616535
-0.00255683
0.00127065
-0.00169356
0.00200293
-0.000678858
0.00243017
0.00169195
-0.000656081
-0.00104204
-0.00173737
-0.00106769
-0.00268337
-0.000656047
-0.00334174
-0.00030491
-0.00374773
-9.37959e-05
-0.00397833
1.47167e-06
-0.00411825
3.97907e-05
-0.00421244
3.18758e-05
-0.00429239
2.03607e-06
-0.00438062
-3.3271e-05
-0.00448193
-7.23704e-05
-0.00458877
-0.000104019
-0.00467365
-0.000114429
-0.0046822
-8.40145e-05
-0.00453456
1.55177e-05
-0.00412059
0.000202753
-0.00334719
0.000497426
-0.00219654
0.000852439
-0.000863992
0.00109775
0.000828015
-0.00104194
-0.0021094
-0.00276518
-0.00306983
-0.00316337
-0.00316165
-0.00312163
-0.00308954
-0.0030873
-0.00312038
-0.00319256
-0.00329641
-0.00341068
-0.00349454
-0.00347888
-0.00327599
-0.00277843
-0.00192588
-0.000828051
)
;

boundaryField
{
    leftWall
    {
        type            calculated;
        value           uniform 0;
    }
    rightWall
    {
        type            calculated;
        value           nonuniform List<scalar> 10(0 -2.1684e-19 0 -4.33681e-19 0 4.33681e-19 4.33681e-19 4.33681e-19 0 0);
    }
    topWall
    {
        type            calculated;
        value           uniform 0;
    }
    bottomWall
    {
        type            calculated;
        value           uniform 0;
    }
    frontAndBackPlanes
    {
        type            empty;
    }
}


// ************************************************************************* //
