/*--------------------------------*- C++ -*----------------------------------*\
| =========                 |                                                 |
| \\      /  F ield         | OpenFOAM: The Open Source CFD Toolbox           |
|  \\    /   O peration     | Version:  2506                                  |
|   \\  /    A nd           | Website:  www.openfoam.com                      |
|    \\/     M anipulation  |                                                 |
\*---------------------------------------------------------------------------*/
FoamFile
{
    version     2.0;
    format      ascii;
    arch        "LSB;label=32;scalar=64";
    class       volVectorField;
    location    "135";
    object      U;
}
// * * * * * * * * * * * * * * * * * * * * * * * * * * * * * * * * * * * * * //

dimensions      [0 1 -1 0 0 0 0];

internalField   nonuniform List<vector> 
200
(
(0.000562207 -0.00136022 0)
(0.00274175 -0.00172065 0)
(0.00501516 -0.00125593 0)
(0.00679721 -0.000663937 0)
(0.00786986 -0.000210876 0)
(0.00838347 4.84953e-05 0)
(0.00856383 0.000140298 0)
(0.00860962 0.00011285 0)
(0.00866588 1.06375e-05 0)
(0.00882966 -0.000135841 0)
(0.00916189 -0.000312596 0)
(0.00969816 -0.000516601 0)
(0.0104544 -0.00074501 0)
(0.0114165 -0.00097753 0)
(0.0124987 -0.00114572 0)
(0.0134493 -0.00107924 0)
(0.0137226 -0.000432021 0)
(0.0124578 0.00129323 0)
(0.00881385 0.00414003 0)
(0.00263006 0.00559034 0)
(0.000575597 -0.00531718 0)
(0.00364826 -0.00815597 0)
(0.00696867 -0.00721842 0)
(0.00979341 -0.00506186 0)
(0.0117775 -0.00297252 0)
(0.0129996 -0.0014599 0)
(0.0136901 -0.000613385 0)
(0.0140843 -0.000332771 0)
(0.0143677 -0.000461373 0)
(0.0146631 -0.000853054 0)
(0.0150368 -0.00139537 0)
(0.0155072 -0.00199919 0)
(0.016043 -0.00256087 0)
(0.0165454 -0.00289654 0)
(0.0168124 -0.0026486 0)
(0.0164874 -0.00118383 0)
(0.0150035 0.00239422 0)
(0.0117615 0.00869568 0)
(0.0067692 0.016188 0)
(0.00113978 0.0160889 0)
(0.000532174 -0.00926062 0)
(0.00337653 -0.0147006 0)
(0.00638285 -0.0134978 0)
(0.00894898 -0.00996645 0)
(0.0107891 -0.00637057 0)
(0.0119768 -0.00363719 0)
(0.0127045 -0.0019641 0)
(0.013156 -0.00121204 0)
(0.0134655 -0.0011298 0)
(0.0137145 -0.00146687 0)
(0.0139388 -0.00201061 0)
(0.0141343 -0.00257091 0)
(0.0142526 -0.0029223 0)
(0.0141854 -0.00271239 0)
(0.0137415 -0.00136039 0)
(0.012619 0.00197276 0)
(0.0105523 0.00810019 0)
(0.00740991 0.01704 0)
(0.00362675 0.0255487 0)
(0.000407363 0.0216255 0)
(0.000457817 -0.012731 0)
(0.00276047 -0.0201898 0)
(0.00500393 -0.0185408 0)
(0.00678816 -0.0137566 0)
(0.00797875 -0.00892322 0)
(0.00870301 -0.00525756 0)
(0.00913629 -0.00298111 0)
(0.00940895 -0.00187641 0)
(0.0095934 -0.001596 0)
(0.00972034 -0.00180738 0)
(0.00979551 -0.00223258 0)
(0.00980603 -0.0026172 0)
(0.00971405 -0.00265071 0)
(0.00944058 -0.00186209 0)
(0.00884158 0.000456454 0)
(0.00775846 0.00515167 0)
(0.00606944 0.0128729 0)
(0.00382198 0.0230406 0)
(0.00148283 0.0311787 0)
(4.26362e-05 0.0240319 0)
(0.000370085 -0.0154786 0)
(0.0019758 -0.0240784 0)
(0.00324372 -0.0217038 0)
(0.00403909 -0.0158223 0)
(0.004419 -0.010125 0)
(0.00456609 -0.00593841 0)
(0.00462564 -0.00339351 0)
(0.0046642 -0.00214989 0)
(0.00469287 -0.00177378 0)
(0.00470177 -0.00189061 0)
(0.00467973 -0.00220418 0)
(0.00461548 -0.00243699 0)
(0.00448576 -0.0022278 0)
(0.0042391 -0.00102555 0)
(0.00377853 0.00194612 0)
(0.00303282 0.00749298 0)
(0.00198415 0.0160538 0)
(0.000795564 0.02652 0)
(-0.000131715 0.0337113 0)
(-0.00018096 0.0244266 0)
(0.000266611 -0.0173641 0)
(0.00100177 -0.0260734 0)
(0.00110713 -0.0227311 0)
(0.000800989 -0.0160224 0)
(0.000339471 -0.00992599 0)
(-8.20238e-05 -0.0056596 0)
(-0.000390869 -0.00317788 0)
(-0.000602101 -0.00200642 0)
(-0.000753386 -0.00166139 0)
(-0.000875478 -0.00177203 0)
(-0.000985927 -0.00205625 0)
(-0.00109753 -0.00223003 0)
(-0.00123056 -0.00189559 0)
(-0.00141635 -0.000453876 0)
(-0.00168817 0.00287751 0)
(-0.00201176 0.00879907 0)
(-0.00226878 0.017471 0)
(-0.00221856 0.0273974 0)
(-0.00162195 0.0333352 0)
(-0.000363499 0.0231944 0)
(0.000129142 -0.0180631 0)
(-0.000332081 -0.0257104 0)
(-0.00165801 -0.0212603 0)
(-0.00316738 -0.0141976 0)
(-0.00447822 -0.00831433 0)
(-0.00546166 -0.00445318 0)
(-0.00615009 -0.00232945 0)
(-0.00662957 -0.00140254 0)
(-0.00697599 -0.00120743 0)
(-0.00723988 -0.00140877 0)
(-0.00745224 -0.00174568 0)
(-0.00763404 -0.00193419 0)
(-0.00779741 -0.00157441 0)
(-0.00792866 -0.000101768 0)
(-0.00794902 0.00315694 0)
(-0.00769296 0.00874417 0)
(-0.00692265 0.0166271 0)
(-0.00540689 0.0252685 0)
(-0.00317781 0.02995 0)
(-0.000572673 0.0203463 0)
(-0.000213346 -0.0169347 0)
(-0.0024356 -0.0221674 0)
(-0.00540789 -0.0168858 0)
(-0.00814472 -0.0102578 0)
(-0.0102069 -0.0052872 0)
(-0.0116084 -0.00230614 0)
(-0.0125219 -0.000845933 0)
(-0.0131208 -0.000363691 0)
(-0.0135339 -0.000450532 0)
(-0.013852 -0.00082508 0)
(-0.0141263 -0.00126851 0)
(-0.014376 -0.0015406 0)
(-0.0145764 -0.00131307 0)
(-0.014634 -0.000147567 0)
(-0.0143454 0.00245511 0)
(-0.0134355 0.00689972 0)
(-0.011576 0.0131082 0)
(-0.00857709 0.0198251 0)
(-0.00473351 0.0233736 0)
(-0.000792023 0.0158214 0)
(-0.000865756 -0.0128557 0)
(-0.00545444 -0.0146036 0)
(-0.00999124 -0.00949247 0)
(-0.0133924 -0.00453622 0)
(-0.0154455 -0.00138279 0)
(-0.0165236 0.000165949 0)
(-0.0170478 0.000673391 0)
(-0.0173066 0.000601125 0)
(-0.0174804 0.000238227 0)
(-0.0176706 -0.000246974 0)
(-0.0179256 -0.000731511 0)
(-0.0182432 -0.00108215 0)
(-0.0185531 -0.00111517 0)
(-0.0186975 -0.000579133 0)
(-0.0183958 0.00083238 0)
(-0.0172503 0.00341653 0)
(-0.0148365 0.00718412 0)
(-0.0109327 0.011424 0)
(-0.00596615 0.0139263 0)
(-0.00100181 0.0097411 0)
(-0.00206573 -0.00440492 0)
(-0.00727154 -0.003774 0)
(-0.0109159 -0.00167846 0)
(-0.0127648 -0.000230075 0)
(-0.0133066 0.00043553 0)
(-0.0131908 0.000608333 0)
(-0.0128439 0.000547245 0)
(-0.0125055 0.000396808 0)
(-0.0122912 0.000220217 0)
(-0.0122476 3.85418e-05 0)
(-0.012386 -0.000138544 0)
(-0.0126862 -0.000297789 0)
(-0.0130898 -0.000413871 0)
(-0.0134728 -0.000439439 0)
(-0.013619 -0.000293673 0)
(-0.0132063 0.000149864 0)
(-0.0118129 0.000991216 0)
(-0.00910646 0.00217445 0)
(-0.00530193 0.0032011 0)
(-0.00125159 0.00268641 0)
)
;

boundaryField
{
    leftWall
    {
        type            fixedValue;
        value           uniform (0 0 0);
    }
    rightWall
    {
        type            fixedValue;
        value           uniform (0 0 0);
    }
    topWall
    {
        type            fixedValue;
        value           uniform (0 0 0);
    }
    bottomWall
    {
        type            fixedValue;
        value           uniform (0 0 0);
    }
    frontAndBackPlanes
    {
        type            empty;
    }
}


// ************************************************************************* //
