/*--------------------------------*- C++ -*----------------------------------*\
| =========                 |                                                 |
| \\      /  F ield         | OpenFOAM: The Open Source CFD Toolbox           |
|  \\    /   O peration     | Version:  2506                                  |
|   \\  /    A nd           | Website:  www.openfoam.com                      |
|    \\/     M anipulation  |                                                 |
\*---------------------------------------------------------------------------*/
FoamFile
{
    version     2.0;
    format      ascii;
    arch        "LSB;label=32;scalar=64";
    class       volVectorField;
    location    "143.8";
    object      U;
}
// * * * * * * * * * * * * * * * * * * * * * * * * * * * * * * * * * * * * * //

dimensions      [0 1 -1 0 0 0 0];

internalField   nonuniform List<vector> 
200
(
(0.000603863 -0.00143277 0)
(0.00289346 -0.00180576 0)
(0.00525982 -0.00131245 0)
(0.00710114 -0.000686716 0)
(0.00819751 -0.000209071 0)
(0.00870732 6.42637e-05 0)
(0.00886765 0.000162229 0)
(0.00888585 0.000136126 0)
(0.0089112 3.2725e-05 0)
(0.00904278 -0.000115116 0)
(0.0093427 -0.000292298 0)
(0.0098461 -0.00049546 0)
(0.0105678 -0.000721708 0)
(0.0114924 -0.000950901 0)
(0.0125331 -0.00111493 0)
(0.0134382 -0.00104412 0)
(0.0136685 -0.000396787 0)
(0.0123735 0.00131349 0)
(0.00872951 0.00412035 0)
(0.00259858 0.00552554 0)
(0.000599599 -0.00556597 0)
(0.00378265 -0.00849697 0)
(0.00720403 -0.00748059 0)
(0.0100993 -0.0052046 0)
(0.0121164 -0.00301133 0)
(0.0133403 -0.00142607 0)
(0.0140114 -0.000536443 0)
(0.014374 -0.000234479 0)
(0.0146203 -0.000354978 0)
(0.014877 -0.000744301 0)
(0.0152113 -0.00128499 0)
(0.0156415 -0.00188515 0)
(0.0161359 -0.00244017 0)
(0.0165954 -0.00276693 0)
(0.0168188 -0.00251063 0)
(0.0164513 -0.00104422 0)
(0.0149332 0.00251103 0)
(0.0116779 0.00874231 0)
(0.00670438 0.0161089 0)
(0.00112567 0.0159171 0)
(0.000546097 -0.00963033 0)
(0.00345307 -0.0152151 0)
(0.00651089 -0.013896 0)
(0.00910745 -0.0101848 0)
(0.0109551 -0.00643044 0)
(0.0121333 -0.00358487 0)
(0.0128414 -0.00184393 0)
(0.0132683 -0.00105689 0)
(0.0135516 -0.000959762 0)
(0.0137743 -0.00129166 0)
(0.0139727 -0.00183255 0)
(0.0141423 -0.00238801 0)
(0.0142344 -0.00273124 0)
(0.0141406 -0.0025117 0)
(0.0136709 -0.00115511 0)
(0.0125279 0.00216181 0)
(0.0104547 0.0082313 0)
(0.00732446 0.0170531 0)
(0.00357407 0.0253916 0)
(0.000398639 0.0213865 0)
(0.000463776 -0.0131581 0)
(0.00278285 -0.0207686 0)
(0.00502627 -0.0189695 0)
(0.0067969 -0.0139695 0)
(0.00796595 -0.00895373 0)
(0.00866717 -0.00516474 0)
(0.00908006 -0.0028177 0)
(0.00933621 -0.00167947 0)
(0.00950761 -0.00138711 0)
(0.00962401 -0.00159601 0)
(0.00969016 -0.00202007 0)
(0.00969241 -0.00240045 0)
(0.00959242 -0.00242568 0)
(0.00931138 -0.00162836 0)
(0.00870486 0.000688611 0)
(0.00762445 0.00534693 0)
(0.00594866 0.012979 0)
(0.00373048 0.022991 0)
(0.00143403 0.0309351 0)
(3.57187e-05 0.0237378 0)
(0.000369373 -0.0159093 0)
(0.00195463 -0.0246281 0)
(0.00318339 -0.0220744 0)
(0.00393453 -0.0159665 0)
(0.00427593 -0.0100927 0)
(0.00439574 -0.00579819 0)
(0.00443988 -0.00319873 0)
(0.00447196 -0.00193446 0)
(0.00449985 -0.00155531 0)
(0.00451135 -0.00167524 0)
(0.00449375 -0.00199081 0)
(0.00443478 -0.00222079 0)
(0.0043106 -0.00200413 0)
(0.00407004 -0.000796001 0)
(0.00361841 0.0021642 0)
(0.00288801 0.00765798 0)
(0.00186432 0.0161044 0)
(0.000712814 0.0263878 0)
(-0.000168446 0.0333775 0)
(-0.000183314 0.0240858 0)
(0.000261037 -0.017758 0)
(0.000951067 -0.0265303 0)
(0.000995003 -0.0229917 0)
(0.000632936 -0.0160699 0)
(0.000132836 -0.00982366 0)
(-0.000308152 -0.00548022 0)
(-0.000622607 -0.00297033 0)
(-0.000831696 -0.00179422 0)
(-0.000975467 -0.00145535 0)
(-0.00108691 -0.0015739 0)
(-0.00118513 -0.00186218 0)
(-0.00128373 -0.00203358 0)
(-0.00140322 -0.00169205 0)
(-0.00157474 -0.000247692 0)
(-0.00182821 0.00306226 0)
(-0.00212679 0.00891444 0)
(-0.00235245 0.0174507 0)
(-0.00226676 0.0271797 0)
(-0.00163758 0.0329279 0)
(-0.000363109 0.0228256 0)
(0.000117842 -0.0183973 0)
(-0.000400019 -0.026039 0)
(-0.00178717 -0.0213926 0)
(-0.00334544 -0.0141558 0)
(-0.00468234 -0.00816827 0)
(-0.00567285 -0.0042613 0)
(-0.00635705 -0.00212702 0)
(-0.00682601 -0.00120706 0)
(-0.0071577 -0.00102599 0)
(-0.00740446 -0.00123952 0)
(-0.00759867 -0.00158277 0)
(-0.00776155 -0.00177132 0)
(-0.00790472 -0.00140952 0)
(-0.00801478 5.6783e-05 0)
(-0.00800966 0.00328469 0)
(-0.00772443 0.00879534 0)
(-0.00692729 0.0165417 0)
(-0.00539307 0.0249967 0)
(-0.00315903 0.0295151 0)
(-0.00056689 0.0199835 0)
(-0.000224472 -0.0171987 0)
(-0.00250527 -0.0223721 0)
(-0.00552929 -0.016915 0)
(-0.00829617 -0.0101584 0)
(-0.0103648 -0.00512455 0)
(-0.0117563 -0.00212482 0)
(-0.0126507 -0.000670471 0)
(-0.0132258 -0.000204467 0)
(-0.0136121 -0.000310032 0)
(-0.0139045 -0.000698718 0)
(-0.0141542 -0.00114939 0)
(-0.0143795 -0.00142349 0)
(-0.0145543 -0.00119807 0)
(-0.0145825 -4.42465e-05 0)
(-0.0142646 0.00252517 0)
(-0.0133344 0.00690061 0)
(-0.0114677 0.0129935 0)
(-0.00848117 0.0195585 0)
(-0.0046709 0.0229818 0)
(-0.000779174 0.0155083 0)
(-0.000881804 -0.0130363 0)
(-0.00553304 -0.0146993 0)
(-0.0101027 -0.00945558 0)
(-0.0135025 -0.00442294 0)
(-0.0155288 -0.00124552 0)
(-0.0165694 0.000296979 0)
(-0.0170548 0.000786811 0)
(-0.0172759 0.000696081 0)
(-0.017417 0.000318747 0)
(-0.0175773 -0.000176622 0)
(-0.0178038 -0.000666531 0)
(-0.0180939 -0.0010188 0)
(-0.0183765 -0.00105322 0)
(-0.0184943 -0.000524417 0)
(-0.0181704 0.000865367 0)
(-0.017016 0.00340579 0)
(-0.0146153 0.0070996 0)
(-0.0107545 0.0112412 0)
(-0.00585911 0.0136611 0)
(-0.000981443 0.00952778 0)
(-0.00209728 -0.00446994 0)
(-0.00736002 -0.00379462 0)
(-0.0110076 -0.0016563 0)
(-0.0128259 -0.000191093 0)
(-0.0133257 0.00047429 0)
(-0.0131672 0.000638696 0)
(-0.012781 0.00056948 0)
(-0.012411 0.000413058 0)
(-0.0121711 0.000233057 0)
(-0.0121061 4.93754e-05 0)
(-0.0122259 -0.000128661 0)
(-0.0125079 -0.000287562 0)
(-0.0128929 -0.000402449 0)
(-0.0132577 -0.000427149 0)
(-0.0133889 -0.000282842 0)
(-0.0129699 0.000153803 0)
(-0.0115879 0.0009782 0)
(-0.00892094 0.00213314 0)
(-0.0051851 0.0031302 0)
(-0.00122098 0.00262021 0)
)
;

boundaryField
{
    leftWall
    {
        type            fixedValue;
        value           uniform (0 0 0);
    }
    rightWall
    {
        type            fixedValue;
        value           uniform (0 0 0);
    }
    topWall
    {
        type            fixedValue;
        value           uniform (0 0 0);
    }
    bottomWall
    {
        type            fixedValue;
        value           uniform (0 0 0);
    }
    frontAndBackPlanes
    {
        type            empty;
    }
}


// ************************************************************************* //
