/*--------------------------------*- C++ -*----------------------------------*\
| =========                 |                                                 |
| \\      /  F ield         | OpenFOAM: The Open Source CFD Toolbox           |
|  \\    /   O peration     | Version:  2506                                  |
|   \\  /    A nd           | Website:  www.openfoam.com                      |
|    \\/     M anipulation  |                                                 |
\*---------------------------------------------------------------------------*/
FoamFile
{
    version     2.0;
    format      ascii;
    arch        "LSB;label=32;scalar=64";
    class       volScalarField;
    location    "137";
    object      T;
}
// * * * * * * * * * * * * * * * * * * * * * * * * * * * * * * * * * * * * * //

dimensions      [0 0 0 1 0 0 0];

internalField   nonuniform List<scalar> 
200
(
273.168
273.201
273.225
273.241
273.252
273.26
273.266
273.271
273.276
273.28
273.285
273.29
273.295
273.3
273.306
273.317
273.341
273.402
273.551
273.872
273.18
273.232
273.268
273.289
273.301
273.307
273.31
273.312
273.315
273.318
273.321
273.325
273.328
273.332
273.335
273.342
273.362
273.422
273.575
273.897
273.195
273.273
273.327
273.358
273.373
273.379
273.38
273.38
273.379
273.379
273.38
273.381
273.382
273.382
273.381
273.384
273.402
273.462
273.619
273.928
273.21
273.315
273.388
273.428
273.447
273.453
273.452
273.449
273.446
273.443
273.442
273.44
273.437
273.432
273.428
273.427
273.444
273.508
273.667
273.958
273.224
273.357
273.446
273.495
273.514
273.519
273.515
273.51
273.505
273.502
273.498
273.494
273.488
273.48
273.472
273.471
273.491
273.56
273.72
273.984
273.24
273.398
273.503
273.555
273.574
273.576
273.571
273.565
273.561
273.558
273.555
273.55
273.542
273.533
273.526
273.528
273.554
273.626
273.773
274.005
273.257
273.443
273.558
273.61
273.627
273.629
273.626
273.624
273.623
273.623
273.622
273.618
273.613
273.607
273.603
273.609
273.637
273.703
273.83
274.026
273.279
273.488
273.608
273.661
273.68
273.687
273.691
273.695
273.699
273.703
273.706
273.708
273.707
273.706
273.707
273.715
273.739
273.793
273.894
274.05
273.303
273.53
273.652
273.709
273.735
273.75
273.761
273.77
273.779
273.788
273.796
273.804
273.81
273.817
273.823
273.833
273.854
273.894
273.965
274.077
273.32
273.551
273.673
273.732
273.763
273.782
273.796
273.809
273.822
273.836
273.849
273.863
273.877
273.891
273.907
273.924
273.947
273.979
274.028
274.101
)
;

boundaryField
{
    leftWall
    {
        type            fixedValue;
        value           uniform 273.15;
    }
    rightWall
    {
        type            customNeumannDirichletCoupledBoundary;
        refValue        nonuniform List<scalar> 10(274.131 274.132 274.134 274.136 274.138 274.139 274.141 274.142 274.144 274.145);
        refGradient     uniform 0;
        valueFraction   uniform 1;
        source          uniform 0;
        value           nonuniform List<scalar> 10(274.131 274.132 274.134 274.136 274.138 274.139 274.141 274.142 274.144 274.145);
        kappaMethod     fluidThermo;
    }
    topWall
    {
        type            zeroGradient;
    }
    bottomWall
    {
        type            zeroGradient;
    }
    frontAndBackPlanes
    {
        type            empty;
    }
}


// ************************************************************************* //
