/*--------------------------------*- C++ -*----------------------------------*\
| =========                 |                                                 |
| \\      /  F ield         | OpenFOAM: The Open Source CFD Toolbox           |
|  \\    /   O peration     | Version:  2506                                  |
|   \\  /    A nd           | Website:  www.openfoam.com                      |
|    \\/     M anipulation  |                                                 |
\*---------------------------------------------------------------------------*/
FoamFile
{
    version     2.0;
    format      ascii;
    arch        "LSB;label=32;scalar=64";
    class       surfaceScalarField;
    location    "34.4";
    object      phi;
}
// * * * * * * * * * * * * * * * * * * * * * * * * * * * * * * * * * * * * * //

dimensions      [1 0 -1 0 0 0 0];

oriented        oriented;

internalField   nonuniform List<scalar> 
370
(
-4.75817e-05
-5.29005e-05
9.47764e-05
-0.000142351
0.000312492
-0.000217703
0.000582384
-0.000269876
0.000875483
-0.000293079
0.0011689
-0.000293393
0.00144948
-0.000280556
0.00171345
-0.000263945
0.00196452
-0.000251053
0.00221141
-0.000246868
0.00246504
-0.000253608
0.00273533
-0.000270273
0.00302622
-0.000290872
0.00332843
-0.000302192
0.00360627
-0.000277825
0.00377163
-0.000165338
0.00365607
0.000115582
0.00303007
0.000626041
0.00166206
0.00136806
0.00166209
0.000114363
-0.000167255
0.000436873
-0.000464835
0.000902993
-0.000683776
0.00144411
-0.000810922
0.0020051
-0.000853993
0.00254725
-0.00083545
0.00304861
-0.000781811
0.00350119
-0.000716432
0.00390635
-0.000656116
0.00426956
-0.000609987
0.00459508
-0.000579033
0.00488002
-0.000555136
0.00510794
-0.000518712
0.00524005
-0.00043423
0.00520503
-0.000242738
0.00489279
0.000146962
0.0041615
0.000846941
0.00287415
0.00191349
0.00117439
0.00306792
0.00283655
0.000200143
-0.000367376
0.000666733
-0.000931354
0.00128117
-0.00129809
0.00194327
-0.00147284
0.00258348
-0.00149399
0.00316235
-0.00141408
0.00366415
-0.00128336
0.0040885
-0.00114054
0.00444242
-0.0010098
0.00473356
-0.000900901
0.00496434
-0.000809602
0.00512632
-0.000716906
0.00519441
-0.00058662
0.00512165
-0.000361312
0.00483746
4.15986e-05
0.00425941
0.00072514
0.00332775
0.00177874
0.00206722
0.00317417
0.000738696
0.00439662
0.00357535
0.000252252
-0.000619581
0.000797519
-0.00147647
0.00146001
-0.0019603
0.00211454
-0.002127
0.002689
-0.002068
0.00315548
-0.00188009
0.00351548
-0.00164289
0.00378534
-0.00140995
0.00398528
-0.00120931
0.00413177
-0.00104699
0.00423212
-0.000909584
0.0042799
-0.000764342
0.00425082
-0.000557234
0.00410112
-0.000211344
0.00377103
0.000371924
0.00320716
0.00128922
0.00238734
0.00259875
0.0013818
0.00417995
0.000437294
0.00534136
0.00401278
0.000275702
-0.000895196
0.000815148
-0.00201562
0.00140545
-0.0025501
0.00191693
-0.00263782
0.00229312
-0.00244344
0.00253164
-0.00211786
0.00265983
-0.00177037
0.00271467
-0.00146414
0.00273015
-0.00122419
0.00273045
-0.00104675
0.00272639
-0.000905022
0.00271293
-0.000750415
0.00266731
-0.00051119
0.00254987
-9.35368e-05
0.00230908
0.000613032
0.0019068
0.00169177
0.00134237
0.00316346
0.000695101
0.00482752
0.000168087
0.00586866
0.00418101
0.00024628
-0.00114133
0.000654859
-0.00242372
0.00101803
-0.00291246
0.00123739
-0.00285616
0.00129375
-0.00249872
0.00122306
-0.00204616
0.00107939
-0.0016258
0.000913786
-0.00129774
0.000763624
-0.00107333
0.000649755
-0.000932248
0.000577105
-0.000831772
0.000536203
-0.000708937
0.000504959
-0.000479406
0.000451125
-3.92379e-05
0.000347355
0.00071721
0.000183256
0.00185625
-1.17273e-05
0.00335883
-0.000158143
0.00497432
-0.000148476
0.0058593
0.00403266
0.000125834
-0.00126693
0.000226253
-0.00252341
0.000174793
-0.00285983
-4.49133e-05
-0.00263506
-0.000386422
-0.00215586
-0.000783599
-0.00164781
-0.0011754
-0.00123303
-0.00152076
-0.000951574
-0.00179968
-0.000793681
-0.00200833
-0.000722878
-0.00215277
-0.000686604
-0.00224294
-0.00061802
-0.00228696
-0.000434662
-0.00228881
-3.67098e-05
-0.0022213
0.000650308
-0.00205625
0.00169175
-0.00173981
0.0030429
-0.00121478
0.00444974
-0.000525117
0.00516997
0.00350768
-0.000130402
-0.00113619
-0.000542676
-0.0021101
-0.0011642
-0.00223677
-0.00188507
-0.00191252
-0.00260248
-0.00143695
-0.00325085
-0.00099821
-0.00380212
-0.000680757
-0.00425466
-0.000498162
-0.00462084
-0.000426681
-0.00491612
-0.000426764
-0.0051503
-0.000451567
-0.00531993
-0.000447524
-0.00540115
-0.000352561
-0.00534174
-9.52558e-05
-0.00507502
0.000384348
-0.004521
0.0011384
-0.00361483
0.00213731
-0.00235396
0.00318934
-0.000933566
0.00374991
0.00257424
-0.000491159
-0.000644569
-0.00150758
-0.00109237
-0.0026757
-0.00106683
-0.00375966
-0.000826647
-0.00464909
-0.000545851
-0.00532883
-0.00031711
-0.00583636
-0.00017212
-0.0062272
-0.000106386
-0.00655286
-0.000100188
-0.00684774
-0.000131082
-0.00712255
-0.00017598
-0.00735949
-0.000209817
-0.00750637
-0.000204927
-0.00747259
-0.000128303
-0.00714729
5.97658e-05
-0.00639096
0.000382708
-0.005106
0.000852899
-0.00330398
0.00138776
-0.00128598
0.00173221
0.00128838
-0.000644036
-0.00173493
-0.00279971
-0.00362419
-0.00416805
-0.00448349
-0.00465424
-0.00475953
-0.00485882
-0.00498914
-0.00516446
-0.00537369
-0.00557806
-0.00570583
-0.00564555
-0.00526236
-0.00440905
-0.00302094
-0.00128849
)
;

boundaryField
{
    leftWall
    {
        type            calculated;
        value           uniform 0;
    }
    rightWall
    {
        type            calculated;
        value           nonuniform List<scalar> 10(0 0 0 0 0 0 0 -8.67362e-19 0 0);
    }
    topWall
    {
        type            calculated;
        value           uniform 0;
    }
    bottomWall
    {
        type            calculated;
        value           uniform 0;
    }
    frontAndBackPlanes
    {
        type            empty;
    }
}


// ************************************************************************* //
