/*--------------------------------*- C++ -*----------------------------------*\
| =========                 |                                                 |
| \\      /  F ield         | OpenFOAM: The Open Source CFD Toolbox           |
|  \\    /   O peration     | Version:  2506                                  |
|   \\  /    A nd           | Website:  www.openfoam.com                      |
|    \\/     M anipulation  |                                                 |
\*---------------------------------------------------------------------------*/
FoamFile
{
    version     2.0;
    format      ascii;
    arch        "LSB;label=32;scalar=64";
    class       volScalarField;
    location    "61.6";
    object      p;
}
// * * * * * * * * * * * * * * * * * * * * * * * * * * * * * * * * * * * * * //

dimensions      [1 -1 -2 0 0 0 0];

internalField   nonuniform List<scalar> 
200
(
100000
100000
100000
100000
100000
100000
99999.9
99999.9
99999.9
99999.9
99999.8
99999.8
99999.8
99999.7
99999.6
99999.5
99999.4
99999.2
99999
99998.9
99733.4
99733.4
99733.4
99733.4
99733.4
99733.3
99733.3
99733.3
99733.3
99733.3
99733.2
99733.2
99733.2
99733.2
99733.1
99733.1
99733
99733
99732.9
99733
99466.8
99466.9
99466.9
99466.8
99466.8
99466.8
99466.8
99466.8
99466.8
99466.7
99466.7
99466.7
99466.7
99466.7
99466.7
99466.6
99466.6
99466.6
99466.6
99466.7
99200.4
99200.4
99200.4
99200.4
99200.4
99200.4
99200.4
99200.4
99200.3
99200.3
99200.3
99200.3
99200.3
99200.3
99200.3
99200.3
99200.3
99200.3
99200.3
99200.3
98934.1
98934.1
98934.1
98934.1
98934.1
98934.1
98934.1
98934.1
98934
98934
98934
98934
98934
98934
98934
98934
98934
98934
98934
98934
98668
98668
98668
98667.9
98667.9
98667.9
98667.9
98667.9
98667.9
98667.9
98667.9
98667.8
98667.8
98667.8
98667.8
98667.8
98667.8
98667.8
98667.9
98667.9
98402
98402
98402
98401.9
98401.9
98401.9
98401.9
98401.9
98401.9
98401.9
98401.9
98401.9
98401.8
98401.8
98401.8
98401.8
98401.9
98401.9
98401.9
98401.9
98136.1
98136.1
98136.1
98136.1
98136.1
98136.1
98136.1
98136.1
98136.1
98136.1
98136.1
98136.1
98136.1
98136.1
98136.1
98136.2
98136.2
98136.3
98136.3
98136.3
97870.3
97870.3
97870.3
97870.3
97870.4
97870.4
97870.4
97870.5
97870.5
97870.6
97870.6
97870.6
97870.7
97870.7
97870.8
97870.9
97871
97871.1
97871.1
97871.1
97604.4
97604.4
97604.5
97604.7
97604.8
97604.9
97605
97605.1
97605.2
97605.3
97605.4
97605.5
97605.6
97605.7
97605.8
97605.9
97606.1
97606.3
97606.4
97606.4
)
;

boundaryField
{
    leftWall
    {
        type            zeroGradient;
    }
    rightWall
    {
        type            zeroGradient;
    }
    topWall
    {
        type            zeroGradient;
    }
    bottomWall
    {
        type            zeroGradient;
    }
    frontAndBackPlanes
    {
        type            empty;
    }
}


// ************************************************************************* //
