/*--------------------------------*- C++ -*----------------------------------*\
| =========                 |                                                 |
| \\      /  F ield         | OpenFOAM: The Open Source CFD Toolbox           |
|  \\    /   O peration     | Version:  2506                                  |
|   \\  /    A nd           | Website:  www.openfoam.com                      |
|    \\/     M anipulation  |                                                 |
\*---------------------------------------------------------------------------*/
FoamFile
{
    version     2.0;
    format      ascii;
    arch        "LSB;label=32;scalar=64";
    class       volScalarField;
    location    "120";
    object      T;
}
// * * * * * * * * * * * * * * * * * * * * * * * * * * * * * * * * * * * * * //

dimensions      [0 0 0 1 0 0 0];

internalField   nonuniform List<scalar> 
200
(
273.166
273.193
273.213
273.227
273.237
273.243
273.248
273.252
273.255
273.259
273.262
273.266
273.27
273.274
273.28
273.29
273.314
273.376
273.528
273.86
273.176
273.221
273.252
273.271
273.281
273.287
273.289
273.291
273.293
273.295
273.298
273.301
273.304
273.307
273.309
273.315
273.335
273.395
273.552
273.886
273.189
273.259
273.307
273.335
273.349
273.354
273.355
273.355
273.354
273.354
273.355
273.356
273.356
273.355
273.354
273.357
273.374
273.436
273.597
273.918
273.203
273.299
273.365
273.402
273.419
273.424
273.424
273.421
273.418
273.416
273.414
273.413
273.409
273.405
273.399
273.399
273.416
273.481
273.645
273.948
273.218
273.338
273.421
273.466
273.485
273.489
273.487
273.482
273.477
273.474
273.471
273.467
273.46
273.452
273.444
273.442
273.462
273.533
273.698
273.975
273.232
273.379
273.477
273.527
273.545
273.547
273.543
273.538
273.534
273.531
273.528
273.523
273.515
273.505
273.497
273.498
273.524
273.599
273.753
273.997
273.249
273.423
273.531
273.582
273.599
273.601
273.599
273.598
273.597
273.597
273.595
273.592
273.586
273.579
273.576
273.582
273.61
273.678
273.812
274.019
273.27
273.467
273.582
273.634
273.654
273.661
273.666
273.67
273.675
273.679
273.682
273.684
273.683
273.682
273.682
273.69
273.716
273.772
273.878
274.044
273.293
273.508
273.626
273.683
273.71
273.725
273.737
273.747
273.757
273.766
273.775
273.783
273.791
273.797
273.804
273.815
273.836
273.878
273.953
274.072
273.309
273.529
273.648
273.707
273.738
273.758
273.774
273.788
273.802
273.816
273.831
273.846
273.861
273.876
273.893
273.911
273.934
273.968
274.02
274.097
)
;

boundaryField
{
    leftWall
    {
        type            fixedValue;
        value           uniform 273.15;
    }
    rightWall
    {
        type            customNeumannDirichletCoupledBoundary;
        refValue        nonuniform List<scalar> 10(274.13 274.131 274.133 274.135 274.137 274.139 274.14 274.142 274.143 274.145);
        refGradient     uniform 0;
        valueFraction   uniform 1;
        source          uniform 0;
        value           nonuniform List<scalar> 10(274.13 274.131 274.133 274.135 274.137 274.139 274.14 274.142 274.143 274.145);
        kappaMethod     fluidThermo;
    }
    topWall
    {
        type            zeroGradient;
    }
    bottomWall
    {
        type            zeroGradient;
    }
    frontAndBackPlanes
    {
        type            empty;
    }
}


// ************************************************************************* //
