/*--------------------------------*- C++ -*----------------------------------*\
| =========                 |                                                 |
| \\      /  F ield         | OpenFOAM: The Open Source CFD Toolbox           |
|  \\    /   O peration     | Version:  2506                                  |
|   \\  /    A nd           | Website:  www.openfoam.com                      |
|    \\/     M anipulation  |                                                 |
\*---------------------------------------------------------------------------*/
FoamFile
{
    version     2.0;
    format      ascii;
    arch        "LSB;label=32;scalar=64";
    class       volVectorField;
    location    "98";
    object      U;
}
// * * * * * * * * * * * * * * * * * * * * * * * * * * * * * * * * * * * * * //

dimensions      [0 1 -1 0 0 0 0];

internalField   nonuniform List<vector> 
200
(
(0.000328282 -0.000955955 0)
(0.00189265 -0.00124843 0)
(0.00365213 -0.000947532 0)
(0.00511403 -0.0005479 0)
(0.00607126 -0.000234535 0)
(0.006627 -5.33361e-05 0)
(0.00694227 6.3346e-06 0)
(0.00716632 -2.54692e-05 0)
(0.00741515 -0.000119545 0)
(0.0077714 -0.000256497 0)
(0.00829185 -0.00042824 0)
(0.00901531 -0.000634127 0)
(0.00996392 -0.000871475 0)
(0.0111294 -0.00111827 0)
(0.0124296 -0.00130285 0)
(0.0136082 -0.00125009 0)
(0.0140846 -0.000596528 0)
(0.0129501 0.00120955 0)
(0.00927944 0.00426031 0)
(0.00279926 0.00593733 0)
(0.000441201 -0.00392688 0)
(0.0028933 -0.00625552 0)
(0.00564847 -0.00577698 0)
(0.0080848 -0.00431039 0)
(0.00989821 -0.00281923 0)
(0.011129 -0.00172042 0)
(0.0119476 -0.00111299 0)
(0.012536 -0.000943 0)
(0.0130425 -0.00110534 0)
(0.0135696 -0.00149697 0)
(0.0141763 -0.00203468 0)
(0.0148806 -0.00264508 0)
(0.0156533 -0.00322831 0)
(0.0163962 -0.00359338 0)
(0.016901 -0.00336395 0)
(0.0167952 -0.00187223 0)
(0.0154799 0.00185522 0)
(0.0122832 0.00854271 0)
(0.00715666 0.0166871 0)
(0.00122296 0.0170378 0)
(0.000453461 -0.00718823 0)
(0.00294035 -0.0118205 0)
(0.00565282 -0.0112904 0)
(0.0080469 -0.00879727 0)
(0.00984735 -0.00611521 0)
(0.0110946 -0.004025 0)
(0.0119406 -0.00273427 0)
(0.012538 -0.00217042 0)
(0.0130024 -0.00215735 0)
(0.0134068 -0.00250691 0)
(0.0137846 -0.00304985 0)
(0.0141329 -0.00361966 0)
(0.0144048 -0.00399579 0)
(0.0144919 -0.00381166 0)
(0.0141963 -0.00244833 0)
(0.013194 0.00101571 0)
(0.0111607 0.00750842 0)
(0.00793733 0.0171168 0)
(0.00395131 0.0265311 0)
(0.000462162 0.022986 0)
(0.000422242 -0.0103249 0)
(0.00262196 -0.0169323 0)
(0.00485787 -0.0161489 0)
(0.00671382 -0.01261 0)
(0.00802353 -0.00883082 0)
(0.00887775 -0.00587627 0)
(0.00942777 -0.00399992 0)
(0.00979526 -0.00307581 0)
(0.0100546 -0.00284912 0)
(0.0102425 -0.00305943 0)
(0.0103709 -0.00347599 0)
(0.0104319 -0.00386855 0)
(0.0103905 -0.00392823 0)
(0.0101669 -0.0031588 0)
(0.00961914 -0.000789721 0)
(0.00853131 0.00416043 0)
(0.0067726 0.0124305 0)
(0.00436032 0.02349 0)
(0.00177467 0.0326785 0)
(8.49047e-05 0.0257314 0)
(0.000370772 -0.0130334 0)
(0.00207885 -0.0209649 0)
(0.00356185 -0.0196259 0)
(0.0046041 -0.0150559 0)
(0.00519943 -0.0103837 0)
(0.0054999 -0.00682589 0)
(0.00564733 -0.00458909 0)
(0.00572142 -0.00345085 0)
(0.00575135 -0.00307765 0)
(0.00574231 -0.00316375 0)
(0.00569313 -0.0034543 0)
(0.00559904 -0.00369132 0)
(0.00544052 -0.0035089 0)
(0.00516458 -0.00231597 0)
(0.00466122 0.000755827 0)
(0.00383856 0.00665132 0)
(0.00266001 0.0159083 0)
(0.0012685 0.0274284 0)
(7.90833e-05 0.0357276 0)
(-0.00016965 0.026409 0)
(0.000290087 -0.0150987 0)
(0.00126837 -0.0234735 0)
(0.00172401 -0.0212737 0)
(0.00173736 -0.0158032 0)
(0.00149631 -0.0105716 0)
(0.00118803 -0.00676498 0)
(0.000908198 -0.00444877 0)
(0.000674634 -0.00328552 0)
(0.000471875 -0.00288749 0)
(0.000283176 -0.00294001 0)
(9.96332e-05 -0.00319189 0)
(-8.68915e-05 -0.00337141 0)
(-0.000295953 -0.00306665 0)
(-0.000563794 -0.00162263 0)
(-0.000938369 0.00185652 0)
(-0.00139551 0.00821504 0)
(-0.00181745 0.0177024 0)
(-0.00195471 0.028771 0)
(-0.00153469 0.0357644 0)
(-0.00036609 0.0253451 0)
(0.000158568 -0.0161292 0)
(1.04788e-05 -0.0238198 0)
(-0.000931436 -0.0205333 0)
(-0.00215613 -0.0145007 0)
(-0.00331716 -0.00922727 0)
(-0.00426328 -0.00562418 0)
(-0.004987 -0.00354243 0)
(-0.00554137 -0.00255668 0)
(-0.00598274 -0.0022743 0)
(-0.00635034 -0.00240246 0)
(-0.00666903 -0.00270109 0)
(-0.0069589 -0.00288774 0)
(-0.00723666 -0.00253695 0)
(-0.00749632 -0.00101975 0)
(-0.00766843 0.00244193 0)
(-0.00756975 0.00850259 0)
(-0.006937 0.0171987 0)
(-0.00550839 0.0269191 0)
(-0.00329266 0.0325173 0)
(-0.000606387 0.0224594 0)
(-0.000155446 -0.0154005 0)
(-0.00204647 -0.0209787 0)
(-0.00471932 -0.0167477 0)
(-0.00728727 -0.0108876 0)
(-0.0093195 -0.00628571 0)
(-0.0107872 -0.00339879 0)
(-0.0118199 -0.00188325 0)
(-0.0125636 -0.00129153 0)
(-0.0131311 -0.00126832 0)
(-0.0136016 -0.00156172 0)
(-0.0140255 -0.00196407 0)
(-0.014424 -0.00222506 0)
(-0.0147772 -0.00198443 0)
(-0.0149944 -0.000746282 0)
(-0.0148625 0.00206532 0)
(-0.0140643 0.006928 0)
(-0.0122358 0.0138175 0)
(-0.00915033 0.0214121 0)
(-0.00510145 0.0256695 0)
(-0.000866669 0.0176418 0)
(-0.000773398 -0.0117906 0)
(-0.00500054 -0.0140403 0)
(-0.00935097 -0.00972459 0)
(-0.0127693 -0.0052246 0)
(-0.0149872 -0.00220687 0)
(-0.0162865 -0.000611922 0)
(-0.0170355 7.40766e-06 0)
(-0.0175132 5.25207e-05 0)
(-0.017883 -0.000216366 0)
(-0.0182504 -0.000640881 0)
(-0.0186743 -0.00109677 0)
(-0.0191548 -0.00144025 0)
(-0.0196255 -0.00146476 0)
(-0.0199222 -0.000883198 0)
(-0.0197445 0.000655751 0)
(-0.0186427 0.00349663 0)
(-0.016142 0.00769433 0)
(-0.0119776 0.0125018 0)
(-0.00659007 0.0154732 0)
(-0.0011202 0.0109797 0)
(-0.00187972 -0.00401869 0)
(-0.00674804 -0.00364919 0)
(-0.0103736 -0.00180962 0)
(-0.012409 -0.000459314 0)
(-0.0132086 0.000213174 0)
(-0.0133565 0.000439177 0)
(-0.0132471 0.000425216 0)
(-0.0130945 0.000310678 0)
(-0.0130275 0.000157799 0)
(-0.0131048 -1.32821e-05 0)
(-0.013346 -0.000188372 0)
(-0.013747 -0.000352925 0)
(-0.0142545 -0.000478371 0)
(-0.0147409 -0.000510537 0)
(-0.0149701 -0.000357221 0)
(-0.0145898 0.000126749 0)
(-0.0131256 0.00106772 0)
(-0.0101859 0.00241606 0)
(-0.00598005 0.00361398 0)
(-0.00142906 0.00307096 0)
)
;

boundaryField
{
    leftWall
    {
        type            fixedValue;
        value           uniform (0 0 0);
    }
    rightWall
    {
        type            fixedValue;
        value           uniform (0 0 0);
    }
    topWall
    {
        type            fixedValue;
        value           uniform (0 0 0);
    }
    bottomWall
    {
        type            fixedValue;
        value           uniform (0 0 0);
    }
    frontAndBackPlanes
    {
        type            empty;
    }
}


// ************************************************************************* //
