/*--------------------------------*- C++ -*----------------------------------*\
| =========                 |                                                 |
| \\      /  F ield         | OpenFOAM: The Open Source CFD Toolbox           |
|  \\    /   O peration     | Version:  2506                                  |
|   \\  /    A nd           | Website:  www.openfoam.com                      |
|    \\/     M anipulation  |                                                 |
\*---------------------------------------------------------------------------*/
FoamFile
{
    version     2.0;
    format      ascii;
    arch        "LSB;label=32;scalar=64";
    class       volScalarField;
    location    "80.8";
    object      T;
}
// * * * * * * * * * * * * * * * * * * * * * * * * * * * * * * * * * * * * * //

dimensions      [0 0 0 1 0 0 0];

internalField   nonuniform List<scalar> 
200
(
273.157
273.169
273.178
273.184
273.188
273.19
273.192
273.193
273.194
273.196
273.197
273.199
273.201
273.204
273.208
273.216
273.239
273.302
273.462
273.824
273.163
273.186
273.204
273.214
273.22
273.223
273.224
273.224
273.225
273.226
273.227
273.229
273.23
273.231
273.233
273.237
273.256
273.317
273.485
273.852
273.173
273.214
273.243
273.261
273.27
273.274
273.275
273.274
273.274
273.273
273.273
273.273
273.273
273.271
273.269
273.27
273.288
273.353
273.527
273.886
273.184
273.245
273.289
273.315
273.328
273.332
273.332
273.33
273.328
273.326
273.325
273.322
273.319
273.313
273.306
273.305
273.324
273.394
273.575
273.917
273.196
273.278
273.337
273.371
273.387
273.391
273.39
273.387
273.383
273.38
273.377
273.373
273.366
273.356
273.345
273.343
273.365
273.443
273.626
273.946
273.208
273.314
273.388
273.428
273.445
273.449
273.447
273.443
273.44
273.437
273.434
273.429
273.42
273.407
273.397
273.397
273.426
273.51
273.685
273.97
273.222
273.352
273.44
273.485
273.502
273.507
273.507
273.506
273.506
273.506
273.505
273.501
273.494
273.485
273.48
273.485
273.516
273.595
273.75
273.994
273.24
273.394
273.49
273.538
273.56
273.57
273.577
273.583
273.589
273.594
273.598
273.6
273.599
273.598
273.598
273.606
273.635
273.7
273.824
274.022
273.26
273.432
273.535
273.59
273.619
273.638
273.653
273.667
273.679
273.691
273.703
273.713
273.722
273.73
273.738
273.749
273.774
273.822
273.91
274.054
273.273
273.453
273.558
273.616
273.651
273.675
273.695
273.714
273.732
273.75
273.768
273.787
273.805
273.824
273.844
273.864
273.891
273.93
273.992
274.085
)
;

boundaryField
{
    leftWall
    {
        type            fixedValue;
        value           uniform 273.15;
    }
    rightWall
    {
        type            customNeumannDirichletCoupledBoundary;
        refValue        nonuniform List<scalar> 10(274.128 274.129 274.131 274.133 274.135 274.137 274.138 274.14 274.142 274.143);
        refGradient     uniform 0;
        valueFraction   uniform 1;
        source          uniform 0;
        value           nonuniform List<scalar> 10(274.128 274.129 274.131 274.133 274.135 274.137 274.138 274.14 274.142 274.143);
        kappaMethod     fluidThermo;
    }
    topWall
    {
        type            zeroGradient;
    }
    bottomWall
    {
        type            zeroGradient;
    }
    frontAndBackPlanes
    {
        type            empty;
    }
}


// ************************************************************************* //
