/*--------------------------------*- C++ -*----------------------------------*\
| =========                 |                                                 |
| \\      /  F ield         | OpenFOAM: The Open Source CFD Toolbox           |
|  \\    /   O peration     | Version:  2506                                  |
|   \\  /    A nd           | Website:  www.openfoam.com                      |
|    \\/     M anipulation  |                                                 |
\*---------------------------------------------------------------------------*/
FoamFile
{
    version     2.0;
    format      ascii;
    arch        "LSB;label=32;scalar=64";
    class       volScalarField;
    location    "90.6";
    object      p_rgh;
}
// * * * * * * * * * * * * * * * * * * * * * * * * * * * * * * * * * * * * * //

dimensions      [1 -1 -2 0 0 0 0];

internalField   nonuniform List<scalar> 
200
(
100000
100000
100000
100000
99999.9
99999.9
99999.8
99999.8
99999.8
99999.7
99999.7
99999.6
99999.6
99999.5
99999.5
99999.3
99999.2
99998.9
99998.6
99998
100000
100000
99999.9
99999.8
99999.8
99999.7
99999.7
99999.7
99999.7
99999.6
99999.6
99999.6
99999.5
99999.5
99999.4
99999.4
99999.3
99999
99998.3
99996.9
100000
100000
99999.7
99999.6
99999.5
99999.4
99999.4
99999.4
99999.4
99999.4
99999.3
99999.3
99999.3
99999.3
99999.3
99999.3
99999.1
99998.7
99997.6
99995.3
100001
99999.9
99999.4
99999.1
99998.9
99998.9
99998.9
99998.9
99998.9
99998.9
99998.9
99998.9
99998.9
99999
99999
99999
99998.9
99998.2
99996.6
99993.6
100001
99999.7
99998.9
99998.5
99998.3
99998.2
99998.2
99998.2
99998.3
99998.3
99998.3
99998.4
99998.5
99998.6
99998.7
99998.7
99998.4
99997.5
99995.4
99991.8
100001
99999.6
99998.4
99997.7
99997.4
99997.4
99997.4
99997.5
99997.5
99997.5
99997.6
99997.6
99997.8
99997.9
99998.1
99998.1
99997.7
99996.5
99994
99990
100002
99999.3
99997.6
99996.8
99996.5
99996.4
99996.4
99996.5
99996.5
99996.4
99996.5
99996.5
99996.6
99996.8
99996.9
99996.8
99996.3
99995
99992.4
99988.4
100002
99998.9
99996.8
99995.8
99995.4
99995.2
99995.1
99995
99994.9
99994.8
99994.8
99994.7
99994.8
99994.8
99994.8
99994.7
99994.2
99993
99990.6
99986.9
100003
99998.4
99996
99994.8
99994.1
99993.8
99993.5
99993.3
99993
99992.8
99992.6
99992.4
99992.3
99992.2
99992
99991.8
99991.4
99990.4
99988.5
99985.5
100003
99998.1
99995.4
99994.1
99993.3
99992.9
99992.5
99992.1
99991.8
99991.5
99991.1
99990.7
99990.4
99990
99989.7
99989.3
99988.8
99988
99986.6
99984.4
)
;

boundaryField
{
    leftWall
    {
        type            fixedFluxPressure;
        gradient        nonuniform List<scalar> 10(0.48339 2.62747 7.29159 14.7621 25.0758 38.4613 55.7096 79.5412 108.875 136.12);
        value           nonuniform List<scalar> 10(100000 100000 100000 100001 100001 100002 100003 100004 100005 100006);
    }
    rightWall
    {
        type            fixedFluxPressure;
        gradient        nonuniform List<scalar> 10(-15.7083 -42.937 -63.0802 -77.4159 -86.7373 -93.2546 -95.0843 -89.879 -75.4293 -55.6511);
        value           nonuniform List<scalar> 10(99997.6 99995.8 99993.7 99991.6 99989.6 99987.7 99986 99984.6 99983.6 99983);
    }
    topWall
    {
        type            fixedFluxPressure;
        gradient        uniform 0;
        value           nonuniform List<scalar> 
20
(
100000
100000
100000
100000
99999.9
99999.9
99999.8
99999.8
99999.8
99999.7
99999.7
99999.6
99999.6
99999.5
99999.5
99999.3
99999.2
99998.9
99998.6
99998
)
;
    }
    bottomWall
    {
        type            fixedFluxPressure;
        gradient        uniform 0;
        value           nonuniform List<scalar> 
20
(
100003
99998.1
99995.4
99994.1
99993.3
99992.9
99992.5
99992.1
99991.8
99991.5
99991.1
99990.7
99990.4
99990
99989.7
99989.3
99988.8
99988
99986.6
99984.4
)
;
    }
    frontAndBackPlanes
    {
        type            empty;
    }
}


// ************************************************************************* //
