/*--------------------------------*- C++ -*----------------------------------*\
| =========                 |                                                 |
| \\      /  F ield         | OpenFOAM: The Open Source CFD Toolbox           |
|  \\    /   O peration     | Version:  2506                                  |
|   \\  /    A nd           | Website:  www.openfoam.com                      |
|    \\/     M anipulation  |                                                 |
\*---------------------------------------------------------------------------*/
FoamFile
{
    version     2.0;
    format      ascii;
    arch        "LSB;label=32;scalar=64";
    class       surfaceScalarField;
    location    "90.6";
    object      phi;
}
// * * * * * * * * * * * * * * * * * * * * * * * * * * * * * * * * * * * * * //

dimensions      [1 0 -1 0 0 0 0];

oriented        oriented;

internalField   nonuniform List<scalar> 
370
(
0.000208708
-0.000258849
0.000609526
-0.000400737
0.000975044
-0.000365401
0.00124554
-0.000270353
0.00142184
-0.000176144
0.00153084
-0.00010882
0.00160513
-7.41137e-05
0.00167349
-6.81654e-05
0.00175799
-8.43058e-05
0.00187454
-0.000116347
0.00203441
-0.000159662
0.00224497
-0.000210344
0.0025079
-0.000262705
0.00281248
-0.000304356
0.00312129
-0.000308581
0.00334432
-0.000222794
0.00329666
4.79049e-05
0.00276037
0.000536525
0.00151265
0.00124793
0.00151277
0.000351082
-0.000609889
0.000960914
-0.00101045
0.00156488
-0.000969206
0.00205384
-0.000759115
0.00241045
-0.00053255
0.00265944
-0.000357595
0.00283856
-0.000253021
0.00298377
-0.000213145
0.00312288
-0.000223196
0.00327416
-0.0002674
0.00344642
-0.000331684
0.00363841
-0.000402092
0.00383523
-0.000459282
0.00400034
-0.000469222
0.00406303
-0.000371018
0.00390873
-6.82342e-05
0.0033964
0.0005605
0.00237172
0.00156145
0.000966235
0.00265364
0.00247911
0.00037178
-0.000981613
0.00099233
-0.00163085
0.00159963
-0.00157629
0.00209109
-0.00125033
0.00245244
-0.000893634
0.0027073
-0.000612179
0.00288888
-0.00043433
0.00302673
-0.000350725
0.00314201
-0.000338206
0.00324685
-0.00037196
0.00334473
-0.00042929
0.00342984
-0.000486923
0.00348376
-0.000512924
0.00346954
-0.000454717
0.00332635
-0.000227547
0.00297217
0.000286238
0.00234359
0.00118937
0.00144791
0.0024574
0.000497013
0.00360477
0.00297624
0.000344244
-0.00132579
0.000886891
-0.00217332
0.00138616
-0.0020753
0.0017652
-0.00162908
0.00202704
-0.00115516
0.00220126
-0.000786081
0.00231818
-0.000550939
0.00239979
-0.000432029
0.00245897
-0.00039708
0.00250164
-0.00041432
0.00252856
-0.000455906
0.00253507
-0.000493118
0.00250789
-0.000485432
0.00242017
-0.000366687
0.00222967
-3.67303e-05
0.00189083
0.0006254
0.00138342
0.0016971
0.000759464
0.00308165
0.000203094
0.00416138
0.00317944
0.000288403
-0.00161412
0.000690787
-0.00257549
0.00101124
-0.00239546
0.0012151
-0.00183261
0.00132932
-0.00126904
0.00138948
-0.000845908
0.00142062
-0.000581744
0.00143533
-0.000446416
0.00143819
-0.000399617
0.00143036
-0.000406168
0.00141178
-0.000436995
0.00138011
-0.000461129
0.00132727
-0.000432262
0.0012354
-0.000274482
0.00107702
0.000121988
0.000832695
0.000870064
0.000510436
0.00201969
0.000182753
0.00340964
-1.3455e-05
0.00435784
0.00316608
0.000198552
-0.00181259
0.00039156
-0.00276828
0.000467168
-0.00247076
0.000450884
-0.00181599
0.000393046
-0.00121086
0.000327399
-0.000779921
0.000267038
-0.00052105
0.000212875
-0.000391926
0.000162176
-0.000348594
0.000112957
-0.000356625
6.40864e-05
-0.000387801
1.27897e-05
-0.000409507
-4.77979e-05
-0.000371346
-0.000127796
-0.000194146
-0.00023273
0.00022727
-0.000349786
0.000987471
-0.000436315
0.00210656
-0.00041719
0.00339083
-0.000235106
0.00417598
0.00293107
4.25092e-05
-0.001855
-7.20509e-05
-0.00265347
-0.000313678
-0.00222882
-0.00058836
-0.00154097
-0.000834757
-0.000964125
-0.00103367
-0.000580683
-0.00118979
-0.000364607
-0.00131479
-0.000266599
-0.00141871
-0.000244362
-0.00150806
-0.000266962
-0.0015874
-0.000308145
-0.00166082
-0.000335767
-0.0017304
-0.000301447
-0.00178938
-0.000134842
-0.00180936
0.000247586
-0.00173951
0.000917963
-0.0015116
0.00187896
-0.00107112
0.00295064
-0.000462744
0.00356782
0.00246841
-0.000221937
-0.00163296
-0.000768987
-0.00210617
-0.00139128
-0.00160621
-0.00193392
-0.000998001
-0.00235111
-0.000546606
-0.0026549
-0.000276578
-0.00287577
-0.000143426
-0.00304247
-9.95917e-05
-0.0031768
-0.000109739
-0.00329353
-0.000149935
-0.00340083
-0.000200546
-0.00349895
-0.000237355
-0.00357495
-0.000225151
-0.00359443
-0.000115072
-0.00349639
0.000149838
-0.00319889
0.000620759
-0.00262248
0.00130284
-0.00174235
0.00207076
-0.000700638
0.0025263
0.00176784
-0.000630199
-0.00100265
-0.00168326
-0.00105284
-0.00262125
-0.000667896
-0.00328939
-0.000329539
-0.00371532
-0.000120354
-0.00397189
-1.97045e-05
-0.00413282
1.7797e-05
-0.00424698
1.48513e-05
-0.00434663
-9.81927e-06
-0.00445212
-4.4188e-05
-0.00456989
-8.25204e-05
-0.00469285
-0.000114153
-0.00479312
-0.000124639
-0.00481465
-9.33062e-05
-0.00467495
1.03706e-05
-0.00425824
0.000204278
-0.00346698
0.000511795
-0.00228048
0.000884457
-0.000899304
0.00114527
0.000868603
-0.00100252
-0.0020551
-0.00272268
-0.0030519
-0.00317194
-0.00319136
-0.00317329
-0.00315818
-0.00316775
-0.00321171
-0.00329402
-0.00340796
-0.00353241
-0.00362553
-0.00361499
-0.00341055
-0.00289861
-0.00201402
-0.000868646
)
;

boundaryField
{
    leftWall
    {
        type            calculated;
        value           uniform 0;
    }
    rightWall
    {
        type            calculated;
        value           nonuniform List<scalar> 10(0 0 0 -4.33681e-19 0 0 0 -4.33681e-19 0 0);
    }
    topWall
    {
        type            calculated;
        value           uniform 0;
    }
    bottomWall
    {
        type            calculated;
        value           uniform 0;
    }
    frontAndBackPlanes
    {
        type            empty;
    }
}


// ************************************************************************* //
