/*--------------------------------*- C++ -*----------------------------------*\
| =========                 |                                                 |
| \\      /  F ield         | OpenFOAM: The Open Source CFD Toolbox           |
|  \\    /   O peration     | Version:  2506                                  |
|   \\  /    A nd           | Website:  www.openfoam.com                      |
|    \\/     M anipulation  |                                                 |
\*---------------------------------------------------------------------------*/
FoamFile
{
    version     2.0;
    format      ascii;
    arch        "LSB;label=32;scalar=64";
    class       volScalarField;
    location    "52.6";
    object      p;
}
// * * * * * * * * * * * * * * * * * * * * * * * * * * * * * * * * * * * * * //

dimensions      [1 -1 -2 0 0 0 0];

internalField   nonuniform List<scalar> 
200
(
100000
100000
100000
100000
100000
100000
100000
99999.9
99999.9
99999.9
99999.9
99999.8
99999.8
99999.7
99999.7
99999.6
99999.4
99999.3
99999.1
99999
99733.4
99733.4
99733.4
99733.4
99733.4
99733.3
99733.3
99733.3
99733.3
99733.3
99733.2
99733.2
99733.2
99733.2
99733.1
99733.1
99733
99733
99732.9
99733
99466.8
99466.8
99466.8
99466.8
99466.8
99466.8
99466.7
99466.7
99466.7
99466.7
99466.7
99466.7
99466.6
99466.6
99466.6
99466.6
99466.6
99466.5
99466.6
99466.6
99200.3
99200.3
99200.3
99200.3
99200.3
99200.3
99200.2
99200.2
99200.2
99200.2
99200.2
99200.2
99200.2
99200.2
99200.1
99200.1
99200.1
99200.1
99200.1
99200.2
98933.9
98933.9
98933.9
98933.9
98933.9
98933.9
98933.8
98933.8
98933.8
98933.8
98933.8
98933.8
98933.8
98933.8
98933.8
98933.7
98933.7
98933.7
98933.8
98933.8
98667.7
98667.7
98667.6
98667.6
98667.6
98667.6
98667.6
98667.6
98667.6
98667.5
98667.5
98667.5
98667.5
98667.5
98667.5
98667.5
98667.5
98667.5
98667.5
98667.5
98401.6
98401.5
98401.5
98401.5
98401.5
98401.5
98401.5
98401.5
98401.4
98401.4
98401.4
98401.4
98401.4
98401.4
98401.4
98401.4
98401.4
98401.4
98401.5
98401.5
98135.6
98135.6
98135.5
98135.5
98135.5
98135.5
98135.5
98135.5
98135.5
98135.5
98135.5
98135.5
98135.6
98135.6
98135.6
98135.6
98135.7
98135.7
98135.8
98135.8
97869.7
97869.7
97869.7
97869.7
97869.7
97869.8
97869.8
97869.8
97869.9
97869.9
97870
97870
97870
97870.1
97870.2
97870.2
97870.3
97870.4
97870.5
97870.5
97603.7
97603.7
97603.8
97603.9
97604
97604.1
97604.2
97604.3
97604.4
97604.5
97604.6
97604.7
97604.8
97604.9
97605.1
97605.2
97605.4
97605.6
97605.7
97605.7
)
;

boundaryField
{
    leftWall
    {
        type            zeroGradient;
    }
    rightWall
    {
        type            zeroGradient;
    }
    topWall
    {
        type            zeroGradient;
    }
    bottomWall
    {
        type            zeroGradient;
    }
    frontAndBackPlanes
    {
        type            empty;
    }
}


// ************************************************************************* //
