/*--------------------------------*- C++ -*----------------------------------*\
| =========                 |                                                 |
| \\      /  F ield         | OpenFOAM: The Open Source CFD Toolbox           |
|  \\    /   O peration     | Version:  2506                                  |
|   \\  /    A nd           | Website:  www.openfoam.com                      |
|    \\/     M anipulation  |                                                 |
\*---------------------------------------------------------------------------*/
FoamFile
{
    version     2.0;
    format      ascii;
    arch        "LSB;label=32;scalar=64";
    class       volVectorField;
    location    "52.6";
    object      U;
}
// * * * * * * * * * * * * * * * * * * * * * * * * * * * * * * * * * * * * * //

dimensions      [0 1 -1 0 0 0 0];

internalField   nonuniform List<vector> 
200
(
(-9.22967e-05 -0.000312712 0)
(0.000421832 -0.000485435 0)
(0.00135627 -0.000467941 0)
(0.00233141 -0.000406227 0)
(0.00317945 -0.000331276 0)
(0.00390991 -0.000272278 0)
(0.00455369 -0.000249482 0)
(0.00516266 -0.000270827 0)
(0.00579851 -0.000338574 0)
(0.00652403 -0.000454099 0)
(0.00739822 -0.000619129 0)
(0.00847145 -0.000833213 0)
(0.0097744 -0.00108625 0)
(0.0112949 -0.00134373 0)
(0.0129314 -0.00152168 0)
(0.0143948 -0.00143993 0)
(0.0150509 -0.000732072 0)
(0.0139436 0.00120209 0)
(0.0100734 0.004511 0)
(0.0030559 0.00645294 0)
(0.000172762 -0.001529 0)
(0.00142535 -0.00298514 0)
(0.00313957 -0.0034113 0)
(0.00492683 -0.00327406 0)
(0.00655015 -0.00290466 0)
(0.00795248 -0.00253773 0)
(0.00916654 -0.00230439 0)
(0.0102603 -0.00226109 0)
(0.0113089 -0.0024202 0)
(0.0123795 -0.00276951 0)
(0.0135201 -0.00327734 0)
(0.0147482 -0.00388104 0)
(0.0160304 -0.00445662 0)
(0.0172502 -0.0047663 0)
(0.018161 -0.00438465 0)
(0.0183355 -0.00261263 0)
(0.0171164 0.00155658 0)
(0.0137331 0.00892274 0)
(0.00810129 0.0179544 0)
(0.00141368 0.0186997 0)
(0.000266416 -0.00333792 0)
(0.00192504 -0.00654151 0)
(0.00399233 -0.00745187 0)
(0.00605636 -0.00709994 0)
(0.00785433 -0.00625627 0)
(0.00933833 -0.0054002 0)
(0.0105589 -0.00477785 0)
(0.0115929 -0.00448112 0)
(0.0125118 -0.00451219 0)
(0.0133691 -0.004822 0)
(0.0141933 -0.00532023 0)
(0.0149794 -0.00585573 0)
(0.0156731 -0.00616685 0)
(0.0161436 -0.00580693 0)
(0.0161503 -0.00406651 0)
(0.01531 4.61073e-05 0)
(0.0131845 0.00753923 0)
(0.00956646 0.0184555 0)
(0.00491201 0.0292277 0)
(0.000627416 0.0257722 0)
(0.000309416 -0.00557753 0)
(0.0021212 -0.0106178 0)
(0.00420894 -0.0117813 0)
(0.00614952 -0.0109483 0)
(0.00770848 -0.00941252 0)
(0.00888397 -0.00791415 0)
(0.00976191 -0.00679442 0)
(0.0104351 -0.00615171 0)
(0.0109749 -0.00595538 0)
(0.0114273 -0.00610942 0)
(0.0118141 -0.0064683 0)
(0.0121312 -0.00680784 0)
(0.0123387 -0.00675602 0)
(0.0123391 -0.00570182 0)
(0.0119513 -0.00273373 0)
(0.0108803 0.00327306 0)
(0.00890153 0.0130943 0)
(0.00598615 0.0260483 0)
(0.00267764 0.0369359 0)
(0.000228862 0.029582 0)
(0.0003296 -0.00793446 0)
(0.00205951 -0.0145828 0)
(0.0038387 -0.0156551 0)
(0.00530821 -0.0140677 0)
(0.00632083 -0.0116911 0)
(0.00694662 -0.00950444 0)
(0.00731052 -0.00789692 0)
(0.00751537 -0.00693212 0)
(0.00762652 -0.00652432 0)
(0.00768015 -0.00652892 0)
(0.00769353 -0.00675947 0)
(0.00766756 -0.00694335 0)
(0.00757863 -0.00663029 0)
(0.00736325 -0.00508629 0)
(0.00690115 -0.00125176 0)
(0.00598701 0.0060565 0)
(0.00453349 0.0173535 0)
(0.00263635 0.0312617 0)
(0.000789493 0.0414716 0)
(-6.84834e-05 0.0311577 0)
(0.000309619 -0.0101206 0)
(0.00164384 -0.0178293 0)
(0.00271575 -0.0183853 0)
(0.00334123 -0.015851 0)
(0.0035296 -0.0126401 0)
(0.00343265 -0.00988364 0)
(0.00319379 -0.00794046 0)
(0.00290101 -0.0067948 0)
(0.00259641 -0.00629417 0)
(0.00229791 -0.00625357 0)
(0.00201177 -0.00645988 0)
(0.00173203 -0.00660523 0)
(0.00143297 -0.00617782 0)
(0.00106632 -0.00435591 0)
(0.000569151 8.20423e-08 0)
(-9.20967e-05 0.00803445 0)
(-0.000788066 0.019937 0)
(-0.00127867 0.0337185 0)
(-0.00124235 0.0426355 0)
(-0.000345634 0.0306504 0)
(0.000214262 -0.0116662 0)
(0.0006598 -0.0194603 0)
(0.000489649 -0.0190728 0)
(-0.000155482 -0.0155988 0)
(-0.00104574 -0.0118007 0)
(-0.00198374 -0.00879701 0)
(-0.00286848 -0.00681222 0)
(-0.00366693 -0.00571738 0)
(-0.00438055 -0.0052985 0)
(-0.00502186 -0.005343 0)
(-0.00560714 -0.005616 0)
(-0.00615784 -0.00577768 0)
(-0.00669744 -0.00528342 0)
(-0.00722853 -0.00332063 0)
(-0.00768629 0.00112173 0)
(-0.00783101 0.00888311 0)
(-0.00733763 0.0199404 0)
(-0.00591784 0.0322696 0)
(-0.00359409 0.039611 0)
(-0.000683195 0.0277427 0)
(-3.15566e-05 -0.0117335 0)
(-0.00118415 -0.0181426 0)
(-0.00318066 -0.0165553 0)
(-0.00540406 -0.0126045 0)
(-0.00744555 -0.00886803 0)
(-0.00916917 -0.00616508 0)
(-0.0105895 -0.00452639 0)
(-0.0117737 -0.00373505 0)
(-0.0127949 -0.00355301 0)
(-0.0137156 -0.0037679 0)
(-0.0145826 -0.00415178 0)
(-0.0154186 -0.00438746 0)
(-0.0162008 -0.00400116 0)
(-0.0168182 -0.00234217 0)
(-0.0170094 0.00133268 0)
(-0.016335 0.00760453 0)
(-0.014356 0.0164329 0)
(-0.0108123 0.0261763 0)
(-0.00607317 0.0318446 0)
(-0.00105051 0.022183 0)
(-0.000554002 -0.00920729 0)
(-0.00391474 -0.0126859 0)
(-0.00782175 -0.0103643 0)
(-0.011301 -0.00697215 0)
(-0.0139407 -0.00423904 0)
(-0.0158298 -0.00250501 0)
(-0.0171983 -0.00161863 0)
(-0.0182618 -0.00133659 0)
(-0.0191854 -0.00145499 0)
(-0.0200852 -0.00181675 0)
(-0.0210291 -0.00227049 0)
(-0.022025 -0.00261859 0)
(-0.0229911 -0.00257693 0)
(-0.0237167 -0.00176377 0)
(-0.0238187 0.000267946 0)
(-0.0227039 0.00393866 0)
(-0.0197973 0.00934535 0)
(-0.0147759 0.0155627 0)
(-0.00818643 0.0195258 0)
(-0.00141108 0.0140401 0)
(-0.00142232 -0.00308032 0)
(-0.00546989 -0.00335279 0)
(-0.00907827 -0.00215544 0)
(-0.0116092 -0.00103804 0)
(-0.0130711 -0.000340011 0)
(-0.0138351 3.26389e-06 0)
(-0.0142408 0.000115423 0)
(-0.0145177 9.05096e-05 0)
(-0.014811 -1.51959e-05 0)
(-0.0152137 -0.000171659 0)
(-0.0157794 -0.000359279 0)
(-0.0165164 -0.000552506 0)
(-0.0173672 -0.000705843 0)
(-0.0181746 -0.000743052 0)
(-0.018639 -0.000544054 0)
(-0.0183109 7.43341e-05 0)
(-0.0165846 0.0013014 0)
(-0.0129547 0.00307793 0)
(-0.0076685 0.00467479 0)
(-0.00185948 0.00401063 0)
)
;

boundaryField
{
    leftWall
    {
        type            fixedValue;
        value           uniform (0 0 0);
    }
    rightWall
    {
        type            fixedValue;
        value           uniform (0 0 0);
    }
    topWall
    {
        type            fixedValue;
        value           uniform (0 0 0);
    }
    bottomWall
    {
        type            fixedValue;
        value           uniform (0 0 0);
    }
    frontAndBackPlanes
    {
        type            empty;
    }
}


// ************************************************************************* //
