/*--------------------------------*- C++ -*----------------------------------*\
| =========                 |                                                 |
| \\      /  F ield         | OpenFOAM: The Open Source CFD Toolbox           |
|  \\    /   O peration     | Version:  2506                                  |
|   \\  /    A nd           | Website:  www.openfoam.com                      |
|    \\/     M anipulation  |                                                 |
\*---------------------------------------------------------------------------*/
FoamFile
{
    version     2.0;
    format      ascii;
    arch        "LSB;label=32;scalar=64";
    class       volScalarField;
    location    "103.6";
    object      p_rgh;
}
// * * * * * * * * * * * * * * * * * * * * * * * * * * * * * * * * * * * * * //

dimensions      [1 -1 -2 0 0 0 0];

internalField   nonuniform List<scalar> 
200
(
100000
100000
100000
99999.9
99999.9
99999.8
99999.8
99999.7
99999.7
99999.6
99999.6
99999.6
99999.5
99999.4
99999.4
99999.2
99999.1
99998.8
99998.5
99997.9
100000
100000
99999.9
99999.8
99999.7
99999.7
99999.6
99999.6
99999.6
99999.5
99999.5
99999.5
99999.4
99999.4
99999.3
99999.3
99999.2
99998.9
99998.2
99996.8
100000
99999.9
99999.6
99999.5
99999.4
99999.3
99999.3
99999.3
99999.3
99999.2
99999.2
99999.2
99999.2
99999.2
99999.2
99999.1
99999
99998.6
99997.5
99995.3
100001
99999.8
99999.3
99999
99998.8
99998.7
99998.7
99998.7
99998.8
99998.8
99998.8
99998.8
99998.8
99998.9
99998.9
99998.9
99998.7
99998.1
99996.5
99993.6
100001
99999.7
99998.8
99998.3
99998.1
99998
99998
99998.1
99998.1
99998.2
99998.2
99998.2
99998.3
99998.4
99998.5
99998.5
99998.3
99997.4
99995.4
99991.9
100001
99999.6
99998.2
99997.5
99997.2
99997.2
99997.2
99997.3
99997.4
99997.4
99997.4
99997.5
99997.6
99997.8
99997.9
99997.9
99997.5
99996.4
99994
99990.2
100002
99999.3
99997.5
99996.6
99996.3
99996.3
99996.3
99996.3
99996.3
99996.3
99996.3
99996.4
99996.5
99996.6
99996.7
99996.6
99996.1
99994.9
99992.5
99988.7
100003
99998.9
99996.7
99995.7
99995.3
99995.1
99995
99994.9
99994.8
99994.7
99994.7
99994.7
99994.7
99994.7
99994.7
99994.6
99994.1
99993
99990.7
99987.2
100003
99998.4
99995.8
99994.6
99994
99993.7
99993.4
99993.2
99993
99992.8
99992.6
99992.4
99992.3
99992.2
99992.1
99991.9
99991.5
99990.5
99988.8
99985.9
100003
99998.1
99995.3
99993.9
99993.2
99992.8
99992.4
99992.1
99991.8
99991.5
99991.2
99990.9
99990.5
99990.2
99989.9
99989.5
99989
99988.2
99986.9
99984.8
)
;

boundaryField
{
    leftWall
    {
        type            fixedFluxPressure;
        gradient        nonuniform List<scalar> 10(0.646271 3.32371 8.81661 17.2853 28.6952 43.2927 61.9834 87.7502 119.21 148.651);
        value           nonuniform List<scalar> 10(100000 100000 100001 100001 100002 100003 100004 100005 100006 100007);
    }
    rightWall
    {
        type            fixedFluxPressure;
        gradient        nonuniform List<scalar> 10(-15.1054 -41.2087 -60.325 -73.7268 -82.3793 -88.2668 -89.6225 -84.2854 -70.3293 -51.7564);
        value           nonuniform List<scalar> 10(99997.5 99995.8 99993.8 99991.8 99989.8 99988 99986.4 99985.1 99984.1 99983.5);
    }
    topWall
    {
        type            fixedFluxPressure;
        gradient        uniform 0;
        value           nonuniform List<scalar> 
20
(
100000
100000
100000
99999.9
99999.9
99999.8
99999.8
99999.7
99999.7
99999.6
99999.6
99999.6
99999.5
99999.4
99999.4
99999.2
99999.1
99998.8
99998.5
99997.9
)
;
    }
    bottomWall
    {
        type            fixedFluxPressure;
        gradient        uniform 0;
        value           nonuniform List<scalar> 
20
(
100003
99998.1
99995.3
99993.9
99993.2
99992.8
99992.4
99992.1
99991.8
99991.5
99991.2
99990.9
99990.5
99990.2
99989.9
99989.5
99989
99988.2
99986.9
99984.8
)
;
    }
    frontAndBackPlanes
    {
        type            empty;
    }
}


// ************************************************************************* //
