/*--------------------------------*- C++ -*----------------------------------*\
| =========                 |                                                 |
| \\      /  F ield         | OpenFOAM: The Open Source CFD Toolbox           |
|  \\    /   O peration     | Version:  2506                                  |
|   \\  /    A nd           | Website:  www.openfoam.com                      |
|    \\/     M anipulation  |                                                 |
\*---------------------------------------------------------------------------*/
FoamFile
{
    version     2.0;
    format      ascii;
    arch        "LSB;label=32;scalar=64";
    class       volScalarField;
    location    "9.2";
    object      T;
}
// * * * * * * * * * * * * * * * * * * * * * * * * * * * * * * * * * * * * * //

dimensions      [0 0 0 1 0 0 0];

internalField   nonuniform List<scalar> 
200
(
273.15
273.149
273.149
273.149
273.149
273.149
273.149
273.149
273.149
273.148
273.148
273.148
273.148
273.149
273.15
273.154
273.171
273.224
273.382
273.775
273.149
273.147
273.145
273.145
273.145
273.144
273.144
273.144
273.144
273.144
273.144
273.144
273.144
273.145
273.146
273.151
273.167
273.225
273.395
273.802
273.147
273.143
273.141
273.139
273.139
273.139
273.139
273.138
273.138
273.138
273.138
273.138
273.139
273.139
273.14
273.146
273.167
273.235
273.422
273.83
273.146
273.14
273.135
273.133
273.133
273.132
273.132
273.132
273.132
273.132
273.132
273.132
273.132
273.133
273.135
273.142
273.168
273.246
273.446
273.852
273.145
273.136
273.13
273.128
273.127
273.126
273.126
273.126
273.126
273.126
273.126
273.126
273.126
273.127
273.129
273.138
273.168
273.256
273.467
273.869
273.143
273.132
273.125
273.122
273.12
273.12
273.12
273.12
273.12
273.12
273.12
273.12
273.12
273.121
273.124
273.136
273.171
273.267
273.486
273.881
273.142
273.128
273.12
273.116
273.114
273.114
273.114
273.114
273.114
273.114
273.114
273.114
273.115
273.117
273.124
273.141
273.184
273.288
273.508
273.889
273.14
273.124
273.114
273.11
273.108
273.108
273.107
273.108
273.108
273.108
273.108
273.109
273.111
273.118
273.133
273.162
273.219
273.33
273.539
273.897
273.139
273.121
273.109
273.104
273.102
273.102
273.101
273.102
273.102
273.102
273.103
273.105
273.111
273.127
273.157
273.209
273.286
273.403
273.593
273.91
273.138
273.118
273.106
273.1
273.097
273.097
273.097
273.097
273.097
273.097
273.098
273.101
273.109
273.132
273.176
273.249
273.35
273.482
273.661
273.929
)
;

boundaryField
{
    leftWall
    {
        type            fixedValue;
        value           uniform 273.15;
    }
    rightWall
    {
        type            customNeumannDirichletCoupledBoundary;
        refValue        nonuniform List<scalar> 10(274.124 274.125 274.126 274.128 274.129 274.13 274.131 274.131 274.132 274.132);
        refGradient     uniform 0;
        valueFraction   uniform 1;
        source          uniform 0;
        value           nonuniform List<scalar> 10(274.124 274.125 274.126 274.128 274.129 274.13 274.131 274.131 274.132 274.132);
        kappaMethod     fluidThermo;
    }
    topWall
    {
        type            zeroGradient;
    }
    bottomWall
    {
        type            zeroGradient;
    }
    frontAndBackPlanes
    {
        type            empty;
    }
}


// ************************************************************************* //
