/*--------------------------------*- C++ -*----------------------------------*\
| =========                 |                                                 |
| \\      /  F ield         | OpenFOAM: The Open Source CFD Toolbox           |
|  \\    /   O peration     | Version:  2506                                  |
|   \\  /    A nd           | Website:  www.openfoam.com                      |
|    \\/     M anipulation  |                                                 |
\*---------------------------------------------------------------------------*/
FoamFile
{
    version     2.0;
    format      ascii;
    arch        "LSB;label=32;scalar=64";
    class       volScalarField;
    location    "96.2";
    object      T;
}
// * * * * * * * * * * * * * * * * * * * * * * * * * * * * * * * * * * * * * //

dimensions      [0 0 0 1 0 0 0];

internalField   nonuniform List<scalar> 
200
(
273.16
273.179
273.193
273.203
273.209
273.213
273.215
273.217
273.219
273.222
273.224
273.227
273.229
273.233
273.237
273.246
273.27
273.332
273.489
273.839
273.168
273.201
273.225
273.239
273.247
273.25
273.252
273.253
273.254
273.255
273.257
273.26
273.262
273.264
273.265
273.27
273.29
273.35
273.513
273.866
273.18
273.234
273.272
273.294
273.305
273.31
273.31
273.31
273.309
273.309
273.309
273.31
273.31
273.308
273.306
273.308
273.326
273.389
273.558
273.9
273.193
273.269
273.323
273.354
273.369
273.374
273.374
273.371
273.369
273.367
273.365
273.363
273.36
273.354
273.348
273.347
273.365
273.433
273.606
273.931
273.206
273.306
273.375
273.414
273.432
273.436
273.434
273.43
273.426
273.423
273.42
273.416
273.409
273.4
273.391
273.388
273.409
273.483
273.659
273.959
273.219
273.343
273.428
273.473
273.491
273.494
273.491
273.487
273.483
273.48
273.477
273.472
273.464
273.452
273.443
273.444
273.471
273.55
273.716
273.982
273.234
273.384
273.482
273.53
273.547
273.551
273.549
273.548
273.548
273.548
273.547
273.543
273.537
273.529
273.524
273.53
273.559
273.633
273.778
274.006
273.254
273.428
273.533
273.583
273.603
273.612
273.618
273.623
273.628
273.633
273.637
273.639
273.638
273.637
273.637
273.645
273.672
273.734
273.849
274.032
273.275
273.467
273.578
273.633
273.661
273.679
273.692
273.704
273.715
273.726
273.736
273.746
273.754
273.761
273.768
273.78
273.803
273.848
273.93
274.062
273.29
273.488
273.6
273.659
273.692
273.714
273.732
273.748
273.765
273.781
273.797
273.814
273.831
273.848
273.866
273.886
273.911
273.948
274.005
274.091
)
;

boundaryField
{
    leftWall
    {
        type            fixedValue;
        value           uniform 273.15;
    }
    rightWall
    {
        type            customNeumannDirichletCoupledBoundary;
        refValue        nonuniform List<scalar> 10(274.129 274.13 274.132 274.134 274.136 274.138 274.139 274.141 274.143 274.144);
        refGradient     uniform 0;
        valueFraction   uniform 1;
        source          uniform 0;
        value           nonuniform List<scalar> 10(274.129 274.13 274.132 274.134 274.136 274.138 274.139 274.141 274.143 274.144);
        kappaMethod     fluidThermo;
    }
    topWall
    {
        type            zeroGradient;
    }
    bottomWall
    {
        type            zeroGradient;
    }
    frontAndBackPlanes
    {
        type            empty;
    }
}


// ************************************************************************* //
