/*--------------------------------*- C++ -*----------------------------------*\
| =========                 |                                                 |
| \\      /  F ield         | OpenFOAM: The Open Source CFD Toolbox           |
|  \\    /   O peration     | Version:  2506                                  |
|   \\  /    A nd           | Website:  www.openfoam.com                      |
|    \\/     M anipulation  |                                                 |
\*---------------------------------------------------------------------------*/
FoamFile
{
    version     2.0;
    format      ascii;
    arch        "LSB;label=32;scalar=64";
    class       surfaceScalarField;
    location    "59";
    object      phi;
}
// * * * * * * * * * * * * * * * * * * * * * * * * * * * * * * * * * * * * * //

dimensions      [1 0 -1 0 0 0 0];

oriented        oriented;

internalField   nonuniform List<scalar> 
370
(
5.6472e-05
-0.000130195
0.000288559
-0.000232027
0.000536216
-0.000247568
0.000759012
-0.000222687
0.000944401
-0.000185268
0.00109783
-0.000153302
0.00123324
-0.000135277
0.00136696
-0.000133584
0.00151486
-0.000147763
0.0016914
-0.000176392
0.00190919
-0.000217635
0.0021778
-0.000268452
0.00249989
-0.000321926
0.00286323
-0.000363166
0.00322606
-0.000362658
0.00349218
-0.000265942
0.00346243
2.99289e-05
0.00291516
0.000547455
0.00160915
0.00130617
0.00160925
0.000209856
-0.000340011
0.000621066
-0.000643126
0.00107619
-0.000702535
0.00149435
-0.000640648
0.00184987
-0.000540585
0.00214653
-0.000449753
0.00240117
-0.000389702
0.00263408
-0.000366271
0.0028638
-0.000377269
0.00310457
-0.000416932
0.00336435
-0.000477185
0.00364189
-0.000545762
0.00392123
-0.000601018
0.00416191
-0.000603588
0.00428557
-0.00048606
0.00416592
-0.000146038
0.00365345
0.000542645
0.00257186
0.00162929
0.00105862
0.00281962
0.00266798
0.000273223
-0.000613168
0.000764194
-0.00113391
0.00128459
-0.00122267
0.00174693
-0.00110268
0.00212703
-0.000920358
0.0024321
-0.000754492
0.00268076
-0.000638028
0.00289245
-0.000577628
0.00308268
-0.000567173
0.00326123
-0.000595152
0.00343102
-0.000646644
0.00358591
-0.000700301
0.0037059
-0.000720658
0.00374972
-0.000647051
0.00364771
-0.000383701
0.00330481
0.000197209
0.00264114
0.00120666
0.00165839
0.00261235
0.000585459
0.00389282
0.00325357
0.000292807
-0.000905883
0.000789068
-0.00162992
0.00128171
-0.00171495
0.00168926
-0.00150982
0.00199918
-0.00122984
0.00222767
-0.000982538
0.00239728
-0.000807208
0.00252717
-0.000707081
0.00263031
-0.000669894
0.00271392
-0.000678338
0.00278002
-0.000712307
0.00282438
-0.000744229
0.00283283
-0.000728658
0.00277515
-0.000588923
0.00260109
-0.0002092
0.0022489
0.000549843
0.0016858
0.00177018
0.00096178
0.00333675
0.000282812
0.00457209
0.00353652
0.000280833
-0.0011866
0.000712921
-0.0020617
0.00109731
-0.0020989
0.00137496
-0.00178697
0.00155356
-0.00140794
0.00166063
-0.00108909
0.00172162
-0.000867691
0.0017537
-0.000738664
0.00176668
-0.000682376
0.00176575
-0.000676919
0.0017532
-0.000699258
0.00172757
-0.00071809
0.00168039
-0.000680959
0.00159196
-0.000499974
0.00142932
-4.60389e-05
0.00115522
0.000824459
0.000769946
0.00215593
0.000346533
0.00376059
4.47466e-05
0.00487422
0.00358142
0.000226019
-0.00141249
0.000507705
-0.00234303
0.000693459
-0.00228416
0.000767963
-0.00186093
0.000766387
-0.0014058
0.000724161
-0.00104632
0.000663794
-0.000806782
0.000596288
-0.000670625
0.000526408
-0.000611964
0.000456556
-0.000606533
0.000387578
-0.000629739
0.000317014
-0.000646974
0.000236794
-0.000600175
0.000133549
-0.00039615
-4.23367e-06
9.23356e-05
-0.000162253
0.000983054
-0.000301635
0.00229585
-0.000343016
0.00380244
-0.000214107
0.00474566
0.00336745
0.000100036
-0.00151238
0.000105364
-0.00234797
-2.05101e-05
-0.00215775
-0.000221293
-0.00165957
-0.00044204
-0.00118448
-0.000651831
-0.000835964
-0.00084039
-0.000617673
-0.0010078
-0.000502664
-0.00115711
-0.000462112
-0.0012915
-0.000471597
-0.00141462
-0.000506067
-0.00153125
-0.000529785
-0.00164519
-0.000485667
-0.00175146
-0.000289299
-0.00182073
0.000162192
-0.00178988
0.00095278
-0.00158038
0.00208689
-0.00113323
0.00335576
-0.000495228
0.004108
0.00287236
-0.000145865
-0.00136634
-0.000567036
-0.00192636
-0.00110188
-0.00162236
-0.00161705
-0.00114383
-0.00205656
-0.000744406
-0.00241383
-0.000478143
-0.00270309
-0.000327875
-0.00294306
-0.000262152
-0.00315038
-0.000254272
-0.00333785
-0.000283599
-0.00351383
-0.000329571
-0.00367915
-0.000363944
-0.00382017
-0.000344129
-0.00389816
-0.000210774
-0.00384089
0.00010545
-0.00354958
0.000661982
-0.00293159
0.00146939
-0.00195877
0.00238337
-0.000791865
0.00294142
0.00208063
-0.000524859
-0.000841289
-0.00146208
-0.000988687
-0.00236828
-0.000715603
-0.00308059
-0.00043096
-0.00359345
-0.000231014
-0.0039543
-0.000116773
-0.00421693
-6.47445e-05
-0.00442584
-5.27645e-05
-0.00461339
-6.62523e-05
-0.00480077
-9.57693e-05
-0.00499748
-0.000132418
-0.00519672
-0.000164262
-0.00536693
-0.000173485
-0.0054426
-0.000134687
-0.00532557
-1.11591e-05
-0.00488145
0.000218269
-0.00399472
0.000583048
-0.00263973
0.00102872
-0.00104589
0.00134784
0.00103484
-0.000841078
-0.0018293
-0.00254436
-0.00297478
-0.00320529
-0.00332159
-0.00338589
-0.00343823
-0.00350408
-0.00359947
-0.00373152
-0.00389543
-0.00406858
-0.00420294
-0.00421379
-0.00399523
-0.00341191
-0.00238295
-0.00103493
)
;

boundaryField
{
    leftWall
    {
        type            calculated;
        value           uniform 0;
    }
    rightWall
    {
        type            calculated;
        value           nonuniform List<scalar> 10(0 0 -4.33681e-19 0 0 0 0 0 0 -4.33681e-19);
    }
    topWall
    {
        type            calculated;
        value           uniform 0;
    }
    bottomWall
    {
        type            calculated;
        value           uniform 0;
    }
    frontAndBackPlanes
    {
        type            empty;
    }
}


// ************************************************************************* //
