/*--------------------------------*- C++ -*----------------------------------*\
| =========                 |                                                 |
| \\      /  F ield         | OpenFOAM: The Open Source CFD Toolbox           |
|  \\    /   O peration     | Version:  2506                                  |
|   \\  /    A nd           | Website:  www.openfoam.com                      |
|    \\/     M anipulation  |                                                 |
\*---------------------------------------------------------------------------*/
FoamFile
{
    version     2.0;
    format      ascii;
    arch        "LSB;label=32;scalar=64";
    class       volVectorField;
    location    "59";
    object      U;
}
// * * * * * * * * * * * * * * * * * * * * * * * * * * * * * * * * * * * * * //

dimensions      [0 1 -1 0 0 0 0];

internalField   nonuniform List<vector> 
200
(
(-2.47122e-05 -0.00039615 0)
(0.000639584 -0.000592214 0)
(0.00168185 -0.000537182 0)
(0.00272256 -0.000427187 0)
(0.00358025 -0.000318325 0)
(0.00427808 -0.00024239 0)
(0.00486732 -0.000214725 0)
(0.00541437 -0.000237298 0)
(0.00598802 -0.000307531 0)
(0.00665261 -0.000423864 0)
(0.00746599 -0.000587164 0)
(0.00847725 -0.000798073 0)
(0.00971808 -0.00104904 0)
(0.0111809 -0.00130854 0)
(0.0127717 -0.00149434 0)
(0.0142088 -0.00142507 0)
(0.0148625 -0.000730693 0)
(0.0137777 0.00118777 0)
(0.00995727 0.00447101 0)
(0.00302271 0.00638794 0)
(0.000217594 -0.0018712 0)
(0.00165907 -0.00345634 0)
(0.00352538 -0.0037414 0)
(0.00539563 -0.00339853 0)
(0.00702581 -0.00285916 0)
(0.00837836 -0.00238558 0)
(0.00951024 -0.00210103 0)
(0.0105076 -0.00204181 0)
(0.0114557 -0.0022005 0)
(0.0124254 -0.0025515 0)
(0.0134653 -0.00305831 0)
(0.0145937 -0.00366192 0)
(0.0157814 -0.00424796 0)
(0.0169203 -0.00458953 0)
(0.0177754 -0.00426661 0)
(0.017931 -0.00257486 0)
(0.0167388 0.00150368 0)
(0.0134323 0.00877456 0)
(0.00792047 0.017712 0)
(0.00137915 0.0184488 0)
(0.000301943 -0.00392935 0)
(0.00210746 -0.007332 0)
(0.00427553 -0.00798869 0)
(0.00637598 -0.00728173 0)
(0.00815023 -0.00614578 0)
(0.00957068 -0.00510438 0)
(0.0107074 -0.00438962 0)
(0.0116496 -0.00405992 0)
(0.0124743 -0.0040853 0)
(0.013236 -0.00439558 0)
(0.0139631 -0.00489389 0)
(0.014652 -0.00543666 0)
(0.0152537 -0.00577991 0)
(0.0156479 -0.00549646 0)
(0.015608 -0.00388653 0)
(0.0147658 5.01409e-05 0)
(0.0126963 0.00734177 0)
(0.00919478 0.0180567 0)
(0.00470159 0.0286716 0)
(0.000591807 0.0252898 0)
(0.000334536 -0.00634563 0)
(0.00223106 -0.0115959 0)
(0.0043498 -0.0123941 0)
(0.00627136 -0.0110923 0)
(0.00777784 -0.00918911 0)
(0.00888743 -0.00746839 0)
(0.00969817 -0.00624321 0)
(0.0103062 -0.00556429 0)
(0.010781 -0.00535955 0)
(0.0111648 -0.00550868 0)
(0.0114773 -0.00586213 0)
(0.0117159 -0.00621051 0)
(0.0118466 -0.0062095 0)
(0.0117827 -0.0052773 0)
(0.011358 -0.00251727 0)
(0.0102953 0.00320614 0)
(0.00838516 0.0127008 0)
(0.00560161 0.0253397 0)
(0.00246692 0.0360171 0)
(0.000194905 0.0288562 0)
(0.000342821 -0.00879776 0)
(0.00209285 -0.015608 0)
(0.00383782 -0.0162174 0)
(0.00524449 -0.0140998 0)
(0.00619284 -0.0113415 0)
(0.00676903 -0.00894382 0)
(0.00709911 -0.00724615 0)
(0.00727853 -0.00625175 0)
(0.00736358 -0.0058303 0)
(0.00738398 -0.00581632 0)
(0.00735484 -0.00602668 0)
(0.00727917 -0.00621259 0)
(0.00713919 -0.00596076 0)
(0.00688004 -0.00457439 0)
(0.00639197 -0.00101367 0)
(0.00548496 0.00591378 0)
(0.00408904 0.0167625 0)
(0.00230875 0.0302452 0)
(0.000613125 0.0402023 0)
(-9.72987e-05 0.0302161 0)
(0.000311069 -0.0109984 0)
(0.00160566 -0.0187729 0)
(0.00259135 -0.0187988 0)
(0.00312907 -0.0157355 0)
(0.00326104 -0.01219 0)
(0.003146 -0.00927359 0)
(0.00291453 -0.00727158 0)
(0.00263803 -0.00610319 0)
(0.00234665 -0.00557763 0)
(0.00205312 -0.00549916 0)
(0.00176374 -0.00566714 0)
(0.00147523 -0.00580391 0)
(0.00116524 -0.00543838 0)
(0.000790443 -0.00378911 0)
(0.000296089 0.000257653 0)
(-0.000350211 0.00784279 0)
(-0.00101798 0.0191895 0)
(-0.00144385 0.0324535 0)
(-0.00132313 0.0410975 0)
(-0.000354561 0.029565 0)
(0.000205252 -0.0124821 0)
(0.000559227 -0.0202163 0)
(0.000268956 -0.0192772 0)
(-0.000463119 -0.0153386 0)
(-0.00138072 -0.0113065 0)
(-0.00229806 -0.0082177 0)
(-0.00313563 -0.00620919 0)
(-0.00387832 -0.005096 0)
(-0.0045368 -0.00464158 0)
(-0.00512586 -0.00463525 0)
(-0.00566073 -0.00486105 0)
(-0.00616176 -0.00501033 0)
(-0.00665338 -0.00457725 0)
(-0.00714135 -0.00278894 0)
(-0.00756487 0.00133466 0)
(-0.00769494 0.00862873 0)
(-0.00721252 0.0191363 0)
(-0.00582228 0.0309476 0)
(-0.00353595 0.0380245 0)
(-0.000669247 0.0266428 0)
(-5.36631e-05 -0.0124192 0)
(-0.00133791 -0.0186362 0)
(-0.0034541 -0.0165467 0)
(-0.00573059 -0.0122687 0)
(-0.0077556 -0.00841362 0)
(-0.00941765 -0.00569782 0)
(-0.0107533 -0.00406892 0)
(-0.0118427 -0.00327044 0)
(-0.0127638 -0.00305609 0)
(-0.01358 -0.003223 0)
(-0.0143383 -0.00356306 0)
(-0.0150641 -0.00378612 0)
(-0.015741 -0.00345001 0)
(-0.0162702 -0.00193544 0)
(-0.0164071 0.00147777 0)
(-0.0157396 0.00737133 0)
(-0.0138365 0.0157425 0)
(-0.0104309 0.0250426 0)
(-0.0058636 0.030479 0)
(-0.00101278 0.0212355 0)
(-0.000595299 -0.00969368 0)
(-0.00411592 -0.0129071 0)
(-0.00810049 -0.010211 0)
(-0.0115636 -0.00664901 0)
(-0.0141251 -0.00390641 0)
(-0.0159111 -0.00221976 0)
(-0.0171703 -0.00137357 0)
(-0.0181219 -0.00110225 0)
(-0.0189283 -0.00120304 0)
(-0.0197018 -0.00153013 0)
(-0.0205096 -0.00194789 0)
(-0.0213638 -0.00227716 0)
(-0.0221936 -0.00225383 0)
(-0.0228072 -0.00151528 0)
(-0.0228473 0.000371771 0)
(-0.021753 0.00382352 0)
(-0.0189634 0.00894364 0)
(-0.0141571 0.0148615 0)
(-0.00784535 0.0186463 0)
(-0.00135096 0.013407 0)
(-0.00151016 -0.00325832 0)
(-0.0057062 -0.00339578 0)
(-0.00930164 -0.00207849 0)
(-0.0117317 -0.000932654 0)
(-0.0130775 -0.000256275 0)
(-0.0137453 5.63378e-05 0)
(-0.0140774 0.000147181 0)
(-0.0142924 0.000113899 0)
(-0.0145233 1.06269e-05 0)
(-0.0148544 -0.000136103 0)
(-0.0153354 -0.000310357 0)
(-0.0159759 -0.00049049 0)
(-0.0167256 -0.000635516 0)
(-0.0174402 -0.000674298 0)
(-0.017838 -0.000491667 0)
(-0.0174951 9.0715e-05 0)
(-0.0158337 0.00124928 0)
(-0.0123647 0.0029319 0)
(-0.00731729 0.00444969 0)
(-0.0017722 0.0038193 0)
)
;

boundaryField
{
    leftWall
    {
        type            fixedValue;
        value           uniform (0 0 0);
    }
    rightWall
    {
        type            fixedValue;
        value           uniform (0 0 0);
    }
    topWall
    {
        type            fixedValue;
        value           uniform (0 0 0);
    }
    bottomWall
    {
        type            fixedValue;
        value           uniform (0 0 0);
    }
    frontAndBackPlanes
    {
        type            empty;
    }
}


// ************************************************************************* //
