/*--------------------------------*- C++ -*----------------------------------*\
| =========                 |                                                 |
| \\      /  F ield         | OpenFOAM: The Open Source CFD Toolbox           |
|  \\    /   O peration     | Version:  2506                                  |
|   \\  /    A nd           | Website:  www.openfoam.com                      |
|    \\/     M anipulation  |                                                 |
\*---------------------------------------------------------------------------*/
FoamFile
{
    version     2.0;
    format      ascii;
    arch        "LSB;label=32;scalar=64";
    class       surfaceScalarField;
    location    "140.4";
    object      phi;
}
// * * * * * * * * * * * * * * * * * * * * * * * * * * * * * * * * * * * * * //

dimensions      [1 0 -1 0 0 0 0];

oriented        oriented;

internalField   nonuniform List<scalar> 
370
(
0.00038159
-0.00040844
0.000974423
-0.000592785
0.00147918
-0.000504683
0.0018167
-0.000337437
0.00200048
-0.000183688
0.00207787
-7.72876e-05
0.0020997
-2.17185e-05
0.00210696
-7.14352e-06
0.00212813
-2.10437e-05
0.00218246
-5.41985e-05
0.00228111
-9.85093e-05
0.00242973
-0.000148471
0.00262807
-0.000198186
0.00286426
-0.000236041
0.00310142
-0.000236997
0.00325219
-0.000150603
0.00315359
9.87695e-05
0.00259685
0.000556906
0.00139714
0.00119985
0.00139722
0.000490807
-0.000899222
0.00130343
-0.00140534
0.00206676
-0.00126792
0.0026436
-0.000914169
0.00302283
-0.000562801
0.0032469
-0.000301233
0.00337159
-0.00014628
0.00344718
-8.26008e-05
0.00351107
-8.47943e-05
0.00358543
-0.000128429
0.00368047
-0.000193407
0.00379475
-0.000262601
0.00391287
-0.00031616
0.0039991
-0.000322112
0.00398693
-0.000224665
0.00377234
6.41465e-05
0.00322227
0.000649006
0.00221666
0.00156268
0.000889499
0.00252716
0.00228679
0.000454458
-0.00135365
0.00118655
-0.00213735
0.0018721
-0.00195335
0.00239578
-0.00143771
0.00275137
-0.000918242
0.00297554
-0.000525248
0.00311283
-0.000283416
0.00320048
-0.000170095
0.00326392
-0.00014808
0.00331703
-0.000181385
0.0033636
-0.00023982
0.00339745
-0.000296293
0.00340003
-0.000318585
0.00333569
-0.000257615
0.00314808
-3.68878e-05
0.0027689
0.000443496
0.00214876
0.00126931
0.00130409
0.00240751
0.00043647
0.00339492
0.00272332
0.000374813
-0.00172842
0.000937098
-0.00269953
0.00142593
-0.00244203
0.00177194
-0.00178356
0.00199165
-0.00113779
0.00212488
-0.000658311
0.00220689
-0.000365255
0.0022603
-0.000223329
0.00229656
-0.000184175
0.00231968
-0.000204341
0.00232876
-0.000248734
0.00231785
-0.000285212
0.00227313
-0.000273703
0.00216937
-0.000153681
0.00197006
0.000162593
0.00164214
0.000771588
0.00117363
0.001738
0.000620493
0.00296082
0.000151489
0.00386406
0.00287487
0.00027655
-0.00200493
0.000624858
-0.00304773
0.000867804
-0.00268483
0.000994844
-0.00191043
0.00104822
-0.00119099
0.00106924
-0.000679154
0.00108053
-0.000376374
0.00108924
-0.000231866
0.00109455
-0.000189308
0.00109365
-0.000203277
0.00108398
-0.000238896
0.00106166
-0.000262723
0.00101796
-0.000229834
0.000936652
-7.21975e-05
0.000796765
0.000302654
0.00058512
0.00098341
0.000317802
0.00200549
6.59984e-05
0.00321279
-5.4294e-05
0.00398448
0.00282063
0.000157314
-0.0021622
0.000247316
-0.00313761
0.000211008
-0.00264836
0.000107031
-0.00180628
-3.65784e-06
-0.00108012
-9.2481e-05
-0.000590158
-0.000154015
-0.00031467
-0.000195922
-0.000189791
-0.00022707
-0.000157993
-0.000253266
-0.000176915
-0.000277853
-0.000214144
-0.000304435
-0.000235976
-0.000339072
-0.00019503
-0.000389712
-2.13872e-05
-0.00045615
0.000369268
-0.000524931
0.00105237
-0.000553633
0.00203437
-0.000473911
0.00313323
-0.000244785
0.00375548
0.00257589
-1.96272e-05
-0.00214253
-0.000250264
-0.00290685
-0.000601071
-0.00229739
-0.000945975
-0.00146121
-0.00122178
-0.00080415
-0.00141952
-0.000392251
-0.00155684
-0.000177185
-0.00165341
-9.30637e-05
-0.00172394
-8.73059e-05
-0.00177812
-0.000122575
-0.00182185
-0.000170249
-0.00185877
-0.000198896
-0.00188863
-0.000165011
-0.00190298
-6.87162e-06
-0.00187192
0.000338373
-0.00175291
0.00093353
-0.00148737
0.00176899
-0.00103129
0.00267729
-0.000435732
0.00316003
0.0021402
-0.000290549
-0.00185192
-0.000946309
-0.00225096
-0.00164714
-0.00159641
-0.00222075
-0.000887432
-0.0026298
-0.000394933
-0.00290163
-0.000120266
-0.00307873
6.51532e-08
-0.00319501
2.33764e-05
-0.00327804
-4.12944e-06
-0.00334434
-5.61281e-05
-0.00340221
-0.000112232
-0.0034507
-0.000150257
-0.00347592
-0.00013965
-0.00344335
-3.92969e-05
-0.00330151
0.000196679
-0.00297934
0.000611504
-0.00241121
0.001201
-0.00158225
0.00184846
-0.000627953
0.00220583
0.00151229
-0.000717509
-0.00113436
-0.00186533
-0.00110301
-0.00283069
-0.000630897
-0.00346692
-0.000251045
-0.00382416
-3.75368e-05
-0.00400799
6.37198e-05
-0.00409464
8.68523e-05
-0.00414045
6.93287e-05
-0.00417839
3.39398e-05
-0.00422622
-8.16455e-06
-0.00428963
-4.86966e-05
-0.00435932
-8.04451e-05
-0.00440821
-9.06459e-05
-0.00438533
-6.20617e-05
-0.00421728
2.87495e-05
-0.0038062
0.00020053
-0.00307053
0.000465436
-0.00200052
0.000778549
-0.000780692
0.000986072
0.000731626
-0.00113429
-0.00223718
-0.00286792
-0.00311881
-0.0031562
-0.00309234
-0.00300535
-0.0029359
-0.00290184
-0.00290989
-0.00295847
-0.00303882
-0.00312936
-0.00319134
-0.0031625
-0.00296189
-0.00249638
-0.00171777
-0.000731647
)
;

boundaryField
{
    leftWall
    {
        type            calculated;
        value           nonuniform List<scalar> 10(6.77626e-21 0 0 0 0 0 0 0 0 0);
    }
    rightWall
    {
        type            calculated;
        value           nonuniform List<scalar> 10(0 0 0 0 4.33681e-19 0 0 0 0 0);
    }
    topWall
    {
        type            calculated;
        value           uniform 0;
    }
    bottomWall
    {
        type            calculated;
        value           uniform 0;
    }
    frontAndBackPlanes
    {
        type            empty;
    }
}


// ************************************************************************* //
