/*--------------------------------*- C++ -*----------------------------------*\
| =========                 |                                                 |
| \\      /  F ield         | OpenFOAM: The Open Source CFD Toolbox           |
|  \\    /   O peration     | Version:  2506                                  |
|   \\  /    A nd           | Website:  www.openfoam.com                      |
|    \\/     M anipulation  |                                                 |
\*---------------------------------------------------------------------------*/
FoamFile
{
    version     2.0;
    format      ascii;
    arch        "LSB;label=32;scalar=64";
    class       volVectorField;
    location    "55";
    object      U;
}
// * * * * * * * * * * * * * * * * * * * * * * * * * * * * * * * * * * * * * //

dimensions      [0 1 -1 0 0 0 0];

internalField   nonuniform List<vector> 
200
(
(-6.61038e-05 -0.000343052 0)
(0.000502985 -0.00052493 0)
(0.0014745 -0.000493365 0)
(0.00247151 -0.000413401 0)
(0.00332025 -0.000325707 0)
(0.00403553 -0.000260403 0)
(0.00465615 -0.00023584 0)
(0.00523959 -0.000257692 0)
(0.00585024 -0.000326412 0)
(0.00655151 -0.000442321 0)
(0.00740209 -0.000606906 0)
(0.00845211 -0.00082021 0)
(0.00973292 -0.00107312 0)
(0.0112344 -0.00133217 0)
(0.0128577 -0.00151376 0)
(0.014316 -0.00143699 0)
(0.0149759 -0.00073385 0)
(0.0138805 0.00119568 0)
(0.0100307 0.00449659 0)
(0.00304412 0.00643007 0)
(0.000189619 -0.00165397 0)
(0.00151082 -0.00315512 0)
(0.00327721 -0.00352551 0)
(0.00508927 -0.00330942 0)
(0.00670828 -0.00287588 0)
(0.00808533 -0.00246966 0)
(0.00926274 -0.00221848 0)
(0.0103155 -0.00217089 0)
(0.0113227 -0.00233168 0)
(0.0123527 -0.00268375 0)
(0.013454 -0.00319385 0)
(0.0146445 -0.00380105 0)
(0.015893 -0.00438501 0)
(0.0170864 -0.00471155 0)
(0.0179825 -0.00435609 0)
(0.018158 -0.00261612 0)
(0.0169581 0.00152043 0)
(0.0136116 0.00885605 0)
(0.00803021 0.0178592 0)
(0.0014004 0.0186063 0)
(0.000279836 -0.0035546 0)
(0.00199139 -0.00682302 0)
(0.00409104 -0.00763047 0)
(0.00616142 -0.00714118 0)
(0.00794282 -0.0061874 0)
(0.00939603 -0.00526403 0)
(0.0105794 -0.00461066 0)
(0.0115743 -0.00430566 0)
(0.0124543 -0.00433874 0)
(0.013273 -0.00465307 0)
(0.0140586 -0.0051565 0)
(0.0148072 -0.00570148 0)
(0.0154668 -0.00603337 0)
(0.0159114 -0.00571218 0)
(0.015906 -0.00403002 0)
(0.0150734 1.10366e-05 0)
(0.0129783 0.00743026 0)
(0.00941325 0.0182791 0)
(0.00482692 0.0290037 0)
(0.000613237 0.0255865 0)
(0.000319023 -0.00585914 0)
(0.00216094 -0.0109618 0)
(0.00425574 -0.0119757 0)
(0.00618338 -0.0109609 0)
(0.00771718 -0.00928782 0)
(0.00886365 -0.00771056 0)
(0.00971333 -0.00655738 0)
(0.0103598 -0.0059071 0)
(0.0108734 -0.00571292 0)
(0.011298 -0.00587013 0)
(0.0116544 -0.00623291 0)
(0.0119394 -0.00658416 0)
(0.0121161 -0.00656337 0)
(0.012092 -0.00557005 0)
(0.0116927 -0.00269525 0)
(0.0106302 0.00319504 0)
(0.00868472 0.0128934 0)
(0.00582721 0.0257383 0)
(0.00259167 0.0365616 0)
(0.000215192 0.0292974 0)
(0.000334736 -0.00825127 0)
(0.00207142 -0.0149391 0)
(0.00383536 -0.0158221 0)
(0.00527886 -0.0140303 0)
(0.00626608 -0.0115132 0)
(0.0068734 -0.00925453 0)
(0.00722565 -0.00762096 0)
(0.00742202 -0.00665129 0)
(0.00752364 -0.00624258 0)
(0.0075637 -0.00624335 0)
(0.00755854 -0.00647043 0)
(0.00751014 -0.00666268 0)
(0.00739783 -0.00638576 0)
(0.00716238 -0.00491972 0)
(0.00668858 -0.00120898 0)
(0.00577809 0.0059405 0)
(0.00434967 0.0170653 0)
(0.00250157 0.0308216 0)
(0.000717431 0.0409526 0)
(-8.00573e-05 0.0307847 0)
(0.000310306 -0.0104433 0)
(0.00163 -0.0181534 0)
(0.00267 -0.0184951 0)
(0.00326405 -0.0157588 0)
(0.00343428 -0.0124284 0)
(0.00333489 -0.00962112 0)
(0.00310335 -0.00766371 0)
(0.0028203 -0.00651384 0)
(0.00252265 -0.00600479 0)
(0.0022261 -0.00594933 0)
(0.00193706 -0.00614192 0)
(0.00165099 -0.00628931 0)
(0.00134388 -0.00589759 0)
(0.000969286 -0.00416071 0)
(0.000466711 5.47757e-05 0)
(-0.000193892 0.00790187 0)
(-0.00087991 0.0195868 0)
(-0.00134589 0.0331775 0)
(-0.00127579 0.0420064 0)
(-0.000349411 0.0302181 0)
(0.000210926 -0.0119672 0)
(0.000623423 -0.0197162 0)
(0.00041163 -0.0191091 0)
(-0.000261683 -0.0154608 0)
(-0.00115689 -0.0115839 0)
(-0.00208058 -0.00855817 0)
(-0.00294157 -0.00657057 0)
(-0.0037144 -0.0054699 0)
(-0.00440418 -0.00503489 0)
(-0.00502412 -0.00505622 0)
(-0.00558987 -0.00530933 0)
(-0.00612244 -0.00546924 0)
(-0.00664593 -0.00500811 0)
(-0.00716482 -0.00312847 0)
(-0.00761649 0.00117229 0)
(-0.00776361 0.00873892 0)
(-0.00728144 0.0195773 0)
(-0.00587806 0.0317103 0)
(-0.00357117 0.0389628 0)
(-0.000677834 0.0273035 0)
(-3.96369e-05 -0.0119881 0)
(-0.00123926 -0.0183054 0)
(-0.00327641 -0.0165202 0)
(-0.00551387 -0.0124509 0)
(-0.00754272 -0.00868021 0)
(-0.0092371 -0.00598141 0)
(-0.0106204 -0.00435033 0)
(-0.0117645 -0.00355499 0)
(-0.0127442 -0.003356 0)
(-0.013622 -0.00354718 0)
(-0.0144447 -0.00391073 0)
(-0.0152367 -0.004142 0)
(-0.0159783 -0.00378056 0)
(-0.0165643 -0.00218761 0)
(-0.0167406 0.00137305 0)
(-0.0160774 0.00748593 0)
(-0.0141372 0.0161295 0)
(-0.0106552 0.0257012 0)
(-0.00598847 0.0312882 0)
(-0.0010355 0.0218046 0)
(-0.000569326 -0.00939003 0)
(-0.00398715 -0.0127542 0)
(-0.00791746 -0.0102864 0)
(-0.0113841 -0.0068359 0)
(-0.013989 -0.00410863 0)
(-0.0158358 -0.00239959 0)
(-0.0171612 -0.00153087 0)
(-0.0181807 -0.00125109 0)
(-0.0190577 -0.00135842 0)
(-0.0199063 -0.00170191 0)
(-0.0207945 -0.0021379 0)
(-0.0217324 -0.00247711 0)
(-0.0226435 -0.00244382 0)
(-0.0233256 -0.00166373 0)
(-0.0234065 0.000305477 0)
(-0.0223056 0.00388359 0)
(-0.0194525 0.00917299 0)
(-0.0145234 0.0152722 0)
(-0.00804893 0.0191696 0)
(-0.00138712 0.0137883 0)
(-0.00145611 -0.00314856 0)
(-0.0055576 -0.00336528 0)
(-0.00915482 -0.00212144 0)
(-0.0116418 -0.00099562 0)
(-0.0130571 -0.000308926 0)
(-0.013785 2.05829e-05 0)
(-0.0141649 0.000124004 0)
(-0.0144205 9.65238e-05 0)
(-0.0146912 -6.87067e-06 0)
(-0.0150661 -0.000157958 0)
(-0.0155974 -0.000338912 0)
(-0.0162944 -0.000525954 0)
(-0.0171031 -0.000675502 0)
(-0.0178722 -0.000713388 0)
(-0.0183101 -0.000521523 0)
(-0.0179776 8.12025e-05 0)
(-0.01628 0.00127971 0)
(-0.0127174 0.00301842 0)
(-0.00752862 0.00458462 0)
(-0.0018251 0.00393517 0)
)
;

boundaryField
{
    leftWall
    {
        type            fixedValue;
        value           uniform (0 0 0);
    }
    rightWall
    {
        type            fixedValue;
        value           uniform (0 0 0);
    }
    topWall
    {
        type            fixedValue;
        value           uniform (0 0 0);
    }
    bottomWall
    {
        type            fixedValue;
        value           uniform (0 0 0);
    }
    frontAndBackPlanes
    {
        type            empty;
    }
}


// ************************************************************************* //
