/*--------------------------------*- C++ -*----------------------------------*\
| =========                 |                                                 |
| \\      /  F ield         | OpenFOAM: The Open Source CFD Toolbox           |
|  \\    /   O peration     | Version:  2506                                  |
|   \\  /    A nd           | Website:  www.openfoam.com                      |
|    \\/     M anipulation  |                                                 |
\*---------------------------------------------------------------------------*/
FoamFile
{
    version     2.0;
    format      ascii;
    arch        "LSB;label=32;scalar=64";
    class       surfaceScalarField;
    location    "94";
    object      phi;
}
// * * * * * * * * * * * * * * * * * * * * * * * * * * * * * * * * * * * * * //

dimensions      [1 0 -1 0 0 0 0];

oriented        oriented;

internalField   nonuniform List<scalar> 
370
(
0.000223612
-0.000271684
0.000640901
-0.00041721
0.00101811
-0.000377093
0.00129381
-0.000275557
0.00147002
-0.000176054
0.00157553
-0.000105336
0.00164461
-6.89023e-05
0.00170716
-6.23607e-05
0.00178588
-7.85313e-05
0.00189691
-0.000110821
0.00205144
-0.000154328
0.00225667
-0.000205018
0.00251412
-0.000257231
0.00281305
-0.000298703
0.0031162
-0.000302918
0.00333394
-0.0002175
0.00328302
5.11525e-05
0.00274607
0.000537191
0.00150302
0.00124326
0.00150313
0.000363526
-0.000635168
0.000991294
-0.00104487
0.00160915
-0.000994791
0.00210541
-0.000771632
0.00246335
-0.000533794
0.00270937
-0.000351142
0.00288293
-0.000242256
0.00302132
-0.000200532
0.00315319
-0.00021018
0.00329718
-0.00025459
0.00346222
-0.000319139
0.00364706
-0.00038962
0.00383679
-0.000446728
0.00399505
-0.000456716
0.00405157
-0.000359184
0.00389281
-5.84889e-05
0.00337825
0.000565961
0.00235648
0.00155922
0.000958892
0.00264106
0.00246213
0.000379483
-0.0010146
0.00101041
-0.00167565
0.00162498
-0.00160915
0.00211936
-0.00126577
0.00247999
-0.00089417
0.00273171
-0.0006026
0.00290882
-0.000419102
0.00304161
-0.000333058
0.00315166
-0.000319967
0.00325128
-0.000353946
0.00334401
-0.000411605
0.00342403
-0.000469372
0.00347295
-0.000495377
0.00345401
-0.000437499
0.00330697
-0.000211867
0.00295072
0.000298037
0.00232351
0.00119345
0.00143328
0.00244972
0.00049082
0.00358374
0.00295306
0.000347455
-0.00136199
0.000892532
-0.00222055
0.00139139
-0.00210776
0.00176776
-0.00164186
0.00202587
-0.00115198
0.00219627
-0.000772698
0.00230978
-0.000532308
0.00238849
-0.000411474
0.0024452
-0.00037638
0.00248567
-0.000394121
0.00251055
-0.000436187
0.00251507
-0.000473596
0.00248593
-0.000465945
0.00239639
-0.00034765
0.00220479
-1.99701e-05
0.00186665
0.000636481
0.00136283
0.00169757
0.000745698
0.00306714
0.000197895
0.00413177
0.00315106
0.000287828
-0.00164974
0.000686002
-0.00261853
0.000999909
-0.00242139
0.00119706
-0.0018387
0.00130587
-0.00126047
0.00136246
-0.000828963
0.0013917
-0.000561233
0.00140574
-0.000425201
0.00140866
-0.000378989
0.00140125
-0.000386403
0.00138322
-0.000417848
0.00135213
-0.000442202
0.00129983
-0.000413325
0.00120852
-0.000256032
0.00105112
0.000137755
0.00080948
0.00087845
0.000492065
0.00201531
0.000171283
0.00338822
-1.77974e-05
0.00432109
0.00313335
0.000195296
-0.00184496
0.000379373
-0.00280239
0.000445007
-0.00248673
0.00042074
-0.00181411
0.000358044
-0.00119744
0.000290403
-0.000760998
0.000230104
-0.000500616
0.000177237
-0.000372022
0.000128457
-0.000329901
8.1401e-05
-0.000339038
3.47285e-05
-0.000370867
-1.44005e-05
-0.000392765
-7.2749e-05
-0.000354664
-0.000150218
-0.000178242
-0.000251854
0.000239722
-0.0003649
0.000991831
-0.000446626
0.00209736
-0.000422337
0.00336423
-0.000236008
0.00413498
0.00289743
3.70596e-05
-0.00188193
-8.78513e-05
-0.00267724
-0.000339507
-0.00223478
-0.000620665
-0.00153263
-0.00086964
-0.000948149
-0.0010682
-0.000562121
-0.0012222
-0.000346311
-0.00134418
-0.000249745
-0.00144468
-0.000229101
-0.00153052
-0.000252895
-0.0016064
-0.000294691
-0.00167638
-0.000322484
-0.00174235
-0.000288389
-0.00179724
-0.000123037
-0.00181271
0.000255514
-0.00173877
0.00091821
-0.00150806
0.00186696
-0.00106686
0.0029233
-0.000460138
0.00352847
0.00243738
-0.000228152
-0.00165368
-0.000785318
-0.00211984
-0.00141488
-0.00160491
-0.00196025
-0.000986946
-0.00237639
-0.000531703
-0.00267671
-0.000261497
-0.00289304
-0.000129679
-0.00305473
-8.77671e-05
-0.00318391
-9.9643e-05
-0.00329563
-0.000140889
-0.00339807
-0.000191971
-0.00349138
-0.000228901
-0.00356255
-0.000216936
-0.00357733
-0.000107982
-0.00347544
0.000153906
-0.00317617
0.000619215
-0.00260129
0.00129234
-0.00172671
0.00204896
-0.000693701
0.00249563
0.00174375
-0.000638389
-0.00101518
-0.00170039
-0.00105759
-0.00264088
-0.000664112
-0.00330584
-0.000321676
-0.00372537
-0.000111872
-0.00397365
-1.29356e-05
-0.00412792
2.48708e-05
-0.00423572
2.03024e-05
-0.004329
-6.10842e-06
-0.00442893
-4.07159e-05
-0.00454138
-7.92729e-05
-0.00465915
-0.000110899
-0.0047545
-0.000121362
-0.00477192
-9.03384e-05
-0.00462976
1.19709e-05
-0.00421407
0.000203738
-0.00342866
0.000507144
-0.00225372
0.000874202
-0.00088808
0.00113014
0.000855727
-0.00101506
-0.0020724
-0.00273621
-0.00305758
-0.00316917
-0.00318183
-0.0031567
-0.00313615
-0.00314203
-0.00318252
-0.00326159
-0.0033723
-0.00349347
-0.00358364
-0.00357151
-0.00336762
-0.00286033
-0.001986
-0.000855768
)
;

boundaryField
{
    leftWall
    {
        type            calculated;
        value           nonuniform List<scalar> 10(0 0 0 0 0 2.1684e-19 0 0 0 0);
    }
    rightWall
    {
        type            calculated;
        value           nonuniform List<scalar> 10(0 0 0 -4.33681e-19 0 0 4.33681e-19 4.33681e-19 0 0);
    }
    topWall
    {
        type            calculated;
        value           uniform 0;
    }
    bottomWall
    {
        type            calculated;
        value           uniform 0;
    }
    frontAndBackPlanes
    {
        type            empty;
    }
}


// ************************************************************************* //
