/*--------------------------------*- C++ -*----------------------------------*\
| =========                 |                                                 |
| \\      /  F ield         | OpenFOAM: The Open Source CFD Toolbox           |
|  \\    /   O peration     | Version:  2506                                  |
|   \\  /    A nd           | Website:  www.openfoam.com                      |
|    \\/     M anipulation  |                                                 |
\*---------------------------------------------------------------------------*/
FoamFile
{
    version     2.0;
    format      ascii;
    arch        "LSB;label=32;scalar=64";
    class       surfaceScalarField;
    location    "146";
    object      phi;
}
// * * * * * * * * * * * * * * * * * * * * * * * * * * * * * * * * * * * * * //

dimensions      [1 0 -1 0 0 0 0];

oriented        oriented;

internalField   nonuniform List<scalar> 
370
(
0.00039534
-0.00042035
0.00100347
-0.000608087
0.00151951
-0.000515975
0.0018628
-0.000343214
0.00204779
-0.0001849
0.00212335
-7.54677e-05
0.00214173
-1.82743e-05
0.00214497
-3.12568e-06
0.00216155
-1.64708e-05
0.00221125
-4.95716e-05
0.00230521
-9.38316e-05
0.00244895
-0.000143607
0.00264206
-0.000192966
0.00287253
-0.000230323
0.0031034
-0.000230722
0.00324738
-0.000143825
0.00314351
0.000104035
0.00258402
0.00055964
0.00138762
0.00119655
0.00138769
0.00050181
-0.000922136
0.00133043
-0.00143664
0.00210645
-0.00129191
0.00269056
-0.000927219
0.0030721
-0.000566328
0.00329484
-0.000298095
0.00341586
-0.000139177
0.00348636
-7.35043e-05
0.00354487
-7.48493e-05
0.00361362
-0.000118198
0.00370291
-0.000182994
0.00381129
-0.000251847
0.00392329
-0.000304823
0.00400316
-0.000310056
0.00398472
-0.00021213
0.00376465
7.63935e-05
0.00321073
0.000658111
0.00220564
0.00156488
0.000883877
0.00251844
0.00227163
0.000460836
-0.00138294
0.00120151
-0.00217724
0.00189309
-0.00198337
0.00241931
-0.0014533
0.00277457
-0.000921455
0.00299656
-0.000519937
0.00313064
-0.000273114
0.00321461
-0.000157338
0.00327427
-0.000134362
0.0033236
-0.000167386
0.00336642
-0.000225664
0.0033965
-0.000281783
0.00339527
-0.000303448
0.00332714
-0.000241771
0.00313608
-2.09194e-05
0.002755
0.000457634
0.00213519
0.00127807
0.001294
0.00240623
0.000432265
0.00338031
0.00270395
0.00037696
-0.00175987
0.000940459
-0.00274064
0.00142822
-0.002471
0.00177149
-0.00179643
0.00198784
-0.00113765
0.00211792
-0.000649853
0.00219726
-0.000352303
0.00224853
-0.000208448
0.00228308
-0.000168754
0.00230477
-0.000188925
0.00231259
-0.000233327
0.00230049
-0.000269525
0.00225462
-0.000257424
0.00214988
-0.000136871
0.00195016
0.000178959
0.00162334
0.000784617
0.00115797
0.00174361
0.000610263
0.00295409
0.000147794
0.0038429
0.0028518
0.000275312
-0.00203514
0.000619043
-0.00308427
0.000855746
-0.00270756
0.000976731
-0.00191725
0.00102538
-0.00118613
0.00104325
-0.000667551
0.00105297
-0.000361863
0.00106115
-0.000216468
0.00106656
-0.000174005
0.00106615
-0.000188356
0.00105717
-0.00022419
0.00103564
-0.000247834
0.000992792
-0.00021442
0.00091253
-5.64495e-05
0.000774451
0.000317201
0.000565697
0.000993536
0.000302961
0.00200651
5.72781e-05
0.00319993
-5.71423e-05
0.00395745
0.00279471
0.000153561
-0.00218866
0.000235414
-0.00316601
0.000190384
-0.00266238
7.95456e-05
-0.00180625
-3.55851e-05
-0.00107084
-0.000125911
-0.000577064
-0.000187597
-0.000300019
-0.000228774
-0.000175135
-0.00025861
-0.000144014
-0.000283152
-0.00016366
-0.000305913
-0.000201276
-0.00033056
-0.000223034
-0.000363065
-0.00018176
-0.00041161
-7.74535e-06
-0.000474804
0.000380558
-0.000539479
0.00105838
-0.000563256
0.00203045
-0.000478453
0.00311528
-0.000245527
0.00372463
0.00254923
-2.42941e-05
-0.00216432
-0.00026426
-0.00292593
-0.000623482
-0.00230301
-0.000973613
-0.00145596
-0.00125138
-0.000792912
-0.00144955
-0.000378748
-0.0015859
-0.000163512
-0.00168072
-8.017e-05
-0.00174898
-7.56037e-05
-0.00180065
-0.00011184
-0.00184178
-0.000159996
-0.00187598
-0.000188687
-0.00190283
-0.000154762
-0.00191361
3.19198e-06
-0.00187851
0.000345609
-0.00175542
0.000935443
-0.00148649
0.00176167
-0.00102867
0.0026576
-0.000433746
0.00312981
0.00211552
-0.000296051
-0.00186822
-0.000960104
-0.00226176
-0.00166699
-0.00159598
-0.00224314
-0.00087966
-0.00265188
-0.000384024
-0.00292177
-0.000108711
-0.00309501
9.88057e-06
-0.00320778
3.27446e-05
-0.00328715
3.90343e-06
-0.00334984
-4.90105e-05
-0.00340415
-0.00010555
-0.00344902
-0.000143686
-0.00347046
-0.00013318
-0.00343368
-3.34607e-05
-0.00328841
0.000200481
-0.00296406
0.000611227
-0.00239609
0.00119383
-0.00157053
0.00183215
-0.000622526
0.00218189
0.00149303
-0.000724113
-0.00114405
-0.00187907
-0.00110668
-0.00284661
-0.000628303
-0.00348067
-0.000245455
-0.00383268
-3.1868e-05
-0.00401116
6.9907e-05
-0.00409293
9.17808e-05
-0.00413344
7.33807e-05
-0.00416681
3.73923e-05
-0.00421034
-5.35313e-06
-0.00426979
-4.59895e-05
-0.00433555
-7.78056e-05
-0.0043806
-8.80234e-05
-0.00435431
-5.96463e-05
-0.00418398
3.02572e-05
-0.00377301
0.000200369
-0.00304117
0.00046209
-0.00197962
0.00077069
-0.000771777
0.000974115
0.000721283
-0.00114399
-0.00225055
-0.00287871
-0.00312403
-0.00315576
-0.00308572
-0.00299381
-0.00292032
-0.00288281
-0.00288806
-0.00293394
-0.00301165
-0.00309959
-0.00315915
-0.00312881
-0.00292837
-0.00246621
-0.00169546
-0.000721302
)
;

boundaryField
{
    leftWall
    {
        type            calculated;
        value           nonuniform List<scalar> 10(0 2.71051e-20 0 0 0 0 0 0 0 0);
    }
    rightWall
    {
        type            calculated;
        value           nonuniform List<scalar> 10(0 0 0 0 0 -4.33681e-19 0 0 0 2.1684e-19);
    }
    topWall
    {
        type            calculated;
        value           uniform 0;
    }
    bottomWall
    {
        type            calculated;
        value           uniform 0;
    }
    frontAndBackPlanes
    {
        type            empty;
    }
}


// ************************************************************************* //
