/*--------------------------------*- C++ -*----------------------------------*\
| =========                 |                                                 |
| \\      /  F ield         | OpenFOAM: The Open Source CFD Toolbox           |
|  \\    /   O peration     | Version:  2506                                  |
|   \\  /    A nd           | Website:  www.openfoam.com                      |
|    \\/     M anipulation  |                                                 |
\*---------------------------------------------------------------------------*/
FoamFile
{
    version     2.0;
    format      ascii;
    arch        "LSB;label=32;scalar=64";
    class       volScalarField;
    location    "146";
    object      T;
}
// * * * * * * * * * * * * * * * * * * * * * * * * * * * * * * * * * * * * * //

dimensions      [0 0 0 1 0 0 0];

internalField   nonuniform List<scalar> 
200
(
273.17
273.204
273.23
273.247
273.259
273.268
273.274
273.28
273.285
273.29
273.295
273.301
273.306
273.311
273.318
273.329
273.353
273.415
273.562
273.878
273.182
273.237
273.275
273.297
273.31
273.316
273.32
273.322
273.325
273.328
273.332
273.336
273.34
273.343
273.347
273.354
273.375
273.434
273.586
273.902
273.197
273.28
273.336
273.368
273.384
273.39
273.392
273.391
273.391
273.391
273.392
273.393
273.394
273.393
273.393
273.397
273.415
273.475
273.629
273.933
273.212
273.323
273.398
273.44
273.459
273.465
273.464
273.461
273.458
273.456
273.454
273.452
273.449
273.445
273.441
273.44
273.457
273.521
273.677
273.962
273.227
273.365
273.457
273.507
273.528
273.532
273.528
273.523
273.518
273.514
273.511
273.507
273.501
273.493
273.485
273.484
273.504
273.572
273.729
273.987
273.243
273.407
273.515
273.568
273.587
273.589
273.584
273.578
273.573
273.57
273.567
273.562
273.555
273.545
273.539
273.541
273.567
273.638
273.782
274.009
273.26
273.453
273.569
273.622
273.639
273.641
273.638
273.636
273.635
273.635
273.633
273.63
273.625
273.619
273.616
273.622
273.649
273.714
273.838
274.03
273.283
273.498
273.619
273.673
273.692
273.699
273.703
273.707
273.711
273.714
273.717
273.718
273.718
273.717
273.717
273.725
273.749
273.803
273.901
274.053
273.307
273.539
273.664
273.721
273.747
273.761
273.771
273.78
273.789
273.797
273.805
273.813
273.819
273.825
273.831
273.842
273.862
273.901
273.97
274.079
273.324
273.561
273.684
273.744
273.774
273.792
273.806
273.819
273.831
273.844
273.857
273.87
273.884
273.898
273.913
273.93
273.952
273.984
274.032
274.102
)
;

boundaryField
{
    leftWall
    {
        type            fixedValue;
        value           uniform 273.15;
    }
    rightWall
    {
        type            customNeumannDirichletCoupledBoundary;
        refValue        nonuniform List<scalar> 10(274.131 274.132 274.134 274.136 274.138 274.139 274.141 274.143 274.144 274.145);
        refGradient     uniform 0;
        valueFraction   uniform 1;
        source          uniform 0;
        value           nonuniform List<scalar> 10(274.131 274.132 274.134 274.136 274.138 274.139 274.141 274.143 274.144 274.145);
        kappaMethod     fluidThermo;
    }
    topWall
    {
        type            zeroGradient;
    }
    bottomWall
    {
        type            zeroGradient;
    }
    frontAndBackPlanes
    {
        type            empty;
    }
}


// ************************************************************************* //
