/*--------------------------------*- C++ -*----------------------------------*\
| =========                 |                                                 |
| \\      /  F ield         | OpenFOAM: The Open Source CFD Toolbox           |
|  \\    /   O peration     | Version:  2506                                  |
|   \\  /    A nd           | Website:  www.openfoam.com                      |
|    \\/     M anipulation  |                                                 |
\*---------------------------------------------------------------------------*/
FoamFile
{
    version     2.0;
    format      ascii;
    arch        "LSB;label=32;scalar=64";
    class       volScalarField;
    location    "96.4";
    object      T;
}
// * * * * * * * * * * * * * * * * * * * * * * * * * * * * * * * * * * * * * //

dimensions      [0 0 0 1 0 0 0];

internalField   nonuniform List<scalar> 
200
(
273.16
273.179
273.193
273.203
273.209
273.213
273.216
273.218
273.22
273.222
273.224
273.227
273.23
273.233
273.238
273.247
273.27
273.332
273.489
273.839
273.168
273.202
273.225
273.239
273.247
273.251
273.252
273.253
273.254
273.256
273.258
273.26
273.262
273.264
273.266
273.271
273.29
273.351
273.514
273.866
273.18
273.234
273.272
273.295
273.306
273.31
273.311
273.31
273.31
273.31
273.31
273.31
273.31
273.309
273.307
273.309
273.326
273.389
273.558
273.9
273.193
273.269
273.323
273.355
273.37
273.374
273.374
273.372
273.369
273.367
273.366
273.364
273.36
273.355
273.348
273.348
273.365
273.433
273.606
273.931
273.206
273.306
273.376
273.415
273.432
273.436
273.435
273.431
273.427
273.423
273.42
273.416
273.41
273.4
273.391
273.389
273.409
273.484
273.659
273.959
273.219
273.344
273.429
273.474
273.492
273.495
273.492
273.487
273.484
273.481
273.478
273.473
273.464
273.453
273.443
273.444
273.471
273.551
273.716
273.983
273.235
273.385
273.483
273.53
273.548
273.551
273.55
273.549
273.548
273.548
273.547
273.544
273.537
273.529
273.525
273.53
273.56
273.634
273.778
274.006
273.254
273.428
273.533
273.583
273.604
273.613
273.618
273.623
273.629
273.634
273.637
273.639
273.639
273.637
273.638
273.646
273.673
273.734
273.849
274.032
273.275
273.468
273.578
273.634
273.662
273.679
273.692
273.704
273.716
273.727
273.737
273.746
273.754
273.762
273.769
273.78
273.803
273.848
273.93
274.062
273.29
273.489
273.6
273.659
273.692
273.714
273.732
273.749
273.765
273.781
273.798
273.814
273.831
273.849
273.867
273.886
273.911
273.948
274.005
274.091
)
;

boundaryField
{
    leftWall
    {
        type            fixedValue;
        value           uniform 273.15;
    }
    rightWall
    {
        type            customNeumannDirichletCoupledBoundary;
        refValue        nonuniform List<scalar> 10(274.129 274.13 274.132 274.134 274.136 274.138 274.139 274.141 274.143 274.144);
        refGradient     uniform 0;
        valueFraction   uniform 1;
        source          uniform 0;
        value           nonuniform List<scalar> 10(274.129 274.13 274.132 274.134 274.136 274.138 274.139 274.141 274.143 274.144);
        kappaMethod     fluidThermo;
    }
    topWall
    {
        type            zeroGradient;
    }
    bottomWall
    {
        type            zeroGradient;
    }
    frontAndBackPlanes
    {
        type            empty;
    }
}


// ************************************************************************* //
