/*--------------------------------*- C++ -*----------------------------------*\
| =========                 |                                                 |
| \\      /  F ield         | OpenFOAM: The Open Source CFD Toolbox           |
|  \\    /   O peration     | Version:  2506                                  |
|   \\  /    A nd           | Website:  www.openfoam.com                      |
|    \\/     M anipulation  |                                                 |
\*---------------------------------------------------------------------------*/
FoamFile
{
    version     2.0;
    format      ascii;
    arch        "LSB;label=32;scalar=64";
    class       volVectorField;
    location    "96.4";
    object      U;
}
// * * * * * * * * * * * * * * * * * * * * * * * * * * * * * * * * * * * * * //

dimensions      [0 1 -1 0 0 0 0];

internalField   nonuniform List<vector> 
200
(
(0.000315809 -0.000934722 0)
(0.00184758 -0.00122379 0)
(0.00358025 -0.000931809 0)
(0.00502593 -0.000542565 0)
(0.00597812 -0.000236659 0)
(0.00653731 -5.95119e-05 0)
(0.00686093 -1.34094e-06 0)
(0.00709544 -3.31378e-05 0)
(0.00735519 -0.000126576 0)
(0.00772204 -0.000262855 0)
(0.00825265 -0.000434218 0)
(0.00898606 -0.000640136 0)
(0.00994477 -0.00087789 0)
(0.0111208 -0.0011253 0)
(0.0124318 -0.00131045 0)
(0.0136213 -0.00125795 0)
(0.0141067 -0.000603728 0)
(0.0129772 0.00120648 0)
(0.00930382 0.00426711 0)
(0.00280786 0.00595489 0)
(0.000433918 -0.00385302 0)
(0.0028524 -0.00615497 0)
(0.00557716 -0.005702 0)
(0.00799303 -0.00427339 0)
(0.00979811 -0.00281487 0)
(0.0110305 -0.00173825 0)
(0.0118571 -0.00114313 0)
(0.0124571 -0.000978291 0)
(0.0129766 -0.00114159 0)
(0.013517 -0.00153247 0)
(0.014137 -0.00206934 0)
(0.0148544 -0.0026796 0)
(0.0156402 -0.00326341 0)
(0.0163962 -0.00362911 0)
(0.0169134 -0.00339922 0)
(0.0168183 -0.00190429 0)
(0.0155106 0.00183228 0)
(0.0123145 0.00854007 0)
(0.00717901 0.0167167 0)
(0.00122769 0.0170877 0)
(0.000449063 -0.00707685 0)
(0.00291585 -0.0116661 0)
(0.00561179 -0.0111735 0)
(0.00799623 -0.00873789 0)
(0.00979459 -0.0061063 0)
(0.0110455 -0.00405127 0)
(0.0118985 -0.00278096 0)
(0.0125045 -0.0022266 0)
(0.0129782 -0.00221638 0)
(0.0133919 -0.00256577 0)
(0.0137789 -0.00310792 0)
(0.0141363 -0.00367752 0)
(0.0144173 -0.00405397 0)
(0.0145133 -0.0038695 0)
(0.0142259 -0.00250288 0)
(0.01323 0.000970451 0)
(0.0111981 0.00748488 0)
(0.00796927 0.0171296 0)
(0.00397087 0.0265898 0)
(0.000465519 0.0230605 0)
(0.000420106 -0.0101941 0)
(0.00261319 -0.0167555 0)
(0.00484775 -0.0160203 0)
(0.00670696 -0.0125508 0)
(0.00802284 -0.00883049 0)
(0.00888412 -0.00591544 0)
(0.00944073 -0.00406099 0)
(0.00981379 -0.00314629 0)
(0.0100777 -0.00292184 0)
(0.0102695 -0.00313137 0)
(0.0104014 -0.00354677 0)
(0.0104658 -0.00393903 0)
(0.0104279 -0.00399914 0)
(0.0102079 -0.00322913 0)
(0.00966258 -0.00085466 0)
(0.00857501 0.00411254 0)
(0.00681306 0.0124156 0)
(0.00439174 0.0235246 0)
(0.00179195 0.0327678 0)
(8.74343e-05 0.0258263 0)
(0.000370572 -0.0128991 0)
(0.00208319 -0.0207938 0)
(0.00357714 -0.0195128 0)
(0.00463241 -0.0150165 0)
(0.00523931 -0.010402 0)
(0.00554811 -0.00687978 0)
(0.0057004 -0.0046602 0)
(0.00577655 -0.00352745 0)
(0.0058067 -0.00315383 0)
(0.00579686 -0.00323763 0)
(0.00574641 -0.00352628 0)
(0.00565083 -0.00376276 0)
(0.00549078 -0.0035811 0)
(0.00521347 -0.00238767 0)
(0.00470987 0.000691213 0)
(0.00388414 0.00660987 0)
(0.00269877 0.015909 0)
(0.00129595 0.0274886 0)
(9.12259e-05 0.0358465 0)
(-0.000169248 0.0265212 0)
(0.000291169 -0.0149727 0)
(0.001282 -0.0233291 0)
(0.00175647 -0.0211938 0)
(0.0017873 -0.0157936 0)
(0.00155838 -0.0106111 0)
(0.00125632 -0.00683063 0)
(0.000978016 -0.00452391 0)
(0.000742972 -0.00336092 0)
(0.000537083 -0.00295946 0)
(0.000344502 -0.00300821 0)
(0.000156895 -0.00325767 0)
(-3.36962e-05 -0.00343674 0)
(-0.000246937 -0.003133 0)
(-0.000519174 -0.00168778 0)
(-0.000899108 0.00180156 0)
(-0.00136317 0.00818754 0)
(-0.00179352 0.0177233 0)
(-0.00194041 0.0288565 0)
(-0.00152984 0.0359066 0)
(-0.000366275 0.0254676 0)
(0.000159751 -0.0160205 0)
(2.86411e-05 -0.0237134 0)
(-0.00089168 -0.0204936 0)
(-0.00210053 -0.0145203 0)
(-0.00325325 -0.00928192 0)
(-0.00419752 -0.00569334 0)
(-0.00492366 -0.00361366 0)
(-0.00548282 -0.00262413 0)
(-0.00593008 -0.00233647 0)
(-0.00630395 -0.0024603 0)
(-0.00662889 -0.00275657 0)
(-0.00692494 -0.00294274 0)
(-0.00720912 -0.00259197 0)
(-0.00747596 -0.00107137 0)
(-0.00765646 0.00240333 0)
(-0.00756617 0.00849287 0)
(-0.00694026 0.0172367 0)
(-0.0055154 0.0270181 0)
(-0.0032995 0.032666 0)
(-0.000608301 0.0225796 0)
(-0.000152336 -0.0153134 0)
(-0.00202491 -0.0209113 0)
(-0.00468082 -0.0167411 0)
(-0.00723928 -0.0109254 0)
(-0.00927006 -0.00634416 0)
(-0.0107421 -0.00346181 0)
(-0.0117823 -0.00194293 0)
(-0.0125346 -0.00134472 0)
(-0.0131113 -0.00131508 0)
(-0.0135909 -0.00160408 0)
(-0.0140237 -0.00200424 0)
(-0.0144307 -0.00226455 0)
(-0.0147928 -0.00202289 0)
(-0.0150189 -0.000779975 0)
(-0.0148956 0.00204453 0)
(-0.0141032 0.00693215 0)
(-0.0122755 0.0138611 0)
(-0.00918405 0.0215053 0)
(-0.00512266 0.0258015 0)
(-0.000870908 0.0177451 0)
(-0.000768169 -0.0117299 0)
(-0.00497473 -0.0140086 0)
(-0.00931445 -0.00973923 0)
(-0.0127336 -0.00526591 0)
(-0.0149609 -0.00225612 0)
(-0.0162742 -0.000658488 0)
(-0.0170374 -3.18895e-05 0)
(-0.017527 2.04429e-05 0)
(-0.0179081 -0.000242933 0)
(-0.0182862 -0.000663767 0)
(-0.0187197 -0.00111794 0)
(-0.0192096 -0.00146099 0)
(-0.0196895 -0.00148488 0)
(-0.0199948 -0.00090042 0)
(-0.019824 0.000646241 0)
(-0.0187241 0.00350225 0)
(-0.0162177 0.00772472 0)
(-0.0120377 0.0125642 0)
(-0.00662563 0.0155616 0)
(-0.00112691 0.0110498 0)
(-0.00186911 -0.00399669 0)
(-0.00671824 -0.00364235 0)
(-0.0103432 -0.00181784 0)
(-0.0123902 -0.000473593 0)
(-0.0132054 0.000198586 0)
(-0.0133674 0.000426917 0)
(-0.0132703 0.000416791 0)
(-0.013129 0.000304874 0)
(-0.0130703 0.000153294 0)
(-0.0131539 -1.67535e-05 0)
(-0.0134012 -0.000191444 0)
(-0.0138082 -0.000356225 0)
(-0.0143217 -0.000482202 0)
(-0.014814 -0.000514741 0)
(-0.0150478 -0.000360957 0)
(-0.0146692 0.000125419 0)
(-0.0132006 0.00107218 0)
(-0.0102473 0.00242993 0)
(-0.00601847 0.00363748 0)
(-0.00143908 0.00309271 0)
)
;

boundaryField
{
    leftWall
    {
        type            fixedValue;
        value           uniform (0 0 0);
    }
    rightWall
    {
        type            fixedValue;
        value           uniform (0 0 0);
    }
    topWall
    {
        type            fixedValue;
        value           uniform (0 0 0);
    }
    bottomWall
    {
        type            fixedValue;
        value           uniform (0 0 0);
    }
    frontAndBackPlanes
    {
        type            empty;
    }
}


// ************************************************************************* //
