/*--------------------------------*- C++ -*----------------------------------*\
| =========                 |                                                 |
| \\      /  F ield         | OpenFOAM: The Open Source CFD Toolbox           |
|  \\    /   O peration     | Version:  2506                                  |
|   \\  /    A nd           | Website:  www.openfoam.com                      |
|    \\/     M anipulation  |                                                 |
\*---------------------------------------------------------------------------*/
FoamFile
{
    version     2.0;
    format      ascii;
    arch        "LSB;label=32;scalar=64";
    class       volScalarField;
    location    "32.6";
    object      T;
}
// * * * * * * * * * * * * * * * * * * * * * * * * * * * * * * * * * * * * * //

dimensions      [0 0 0 1 0 0 0];

internalField   nonuniform List<scalar> 
200
(
273.15
273.149
273.148
273.147
273.147
273.146
273.146
273.145
273.145
273.145
273.145
273.145
273.146
273.147
273.149
273.157
273.179
273.241
273.405
273.792
273.15
273.149
273.148
273.147
273.147
273.147
273.146
273.146
273.146
273.146
273.145
273.145
273.145
273.145
273.147
273.152
273.171
273.233
273.407
273.81
273.15
273.149
273.148
273.148
273.149
273.149
273.149
273.149
273.149
273.149
273.149
273.148
273.147
273.146
273.146
273.151
273.172
273.241
273.429
273.835
273.15
273.15
273.15
273.152
273.154
273.157
273.159
273.16
273.16
273.16
273.158
273.156
273.153
273.15
273.149
273.154
273.179
273.257
273.457
273.86
273.15
273.151
273.154
273.16
273.167
273.173
273.179
273.182
273.183
273.182
273.179
273.174
273.167
273.161
273.157
273.164
273.194
273.283
273.495
273.887
273.151
273.154
273.163
273.176
273.191
273.204
273.214
273.219
273.22
273.218
273.212
273.203
273.191
273.181
273.177
273.187
273.227
273.331
273.55
273.915
273.152
273.16
273.177
273.203
273.23
273.253
273.268
273.274
273.275
273.272
273.265
273.255
273.245
273.237
273.239
273.257
273.306
273.412
273.615
273.941
273.154
273.17
273.201
273.243
273.285
273.317
273.338
273.351
273.358
273.361
273.362
273.361
273.359
273.359
273.365
273.386
273.433
273.528
273.699
273.971
273.157
273.181
273.227
273.286
273.343
273.391
273.427
273.454
273.475
273.491
273.505
273.517
273.527
273.537
273.547
273.567
273.605
273.678
273.804
274.009
273.156
273.182
273.231
273.295
273.36
273.42
273.471
273.514
273.551
273.583
273.612
273.638
273.662
273.686
273.71
273.737
273.774
273.829
273.916
274.052
)
;

boundaryField
{
    leftWall
    {
        type            fixedValue;
        value           uniform 273.15;
    }
    rightWall
    {
        type            customNeumannDirichletCoupledBoundary;
        refValue        nonuniform List<scalar> 10(274.125 274.126 274.127 274.129 274.131 274.133 274.135 274.137 274.139 274.141);
        refGradient     uniform 0;
        valueFraction   uniform 1;
        source          uniform 0;
        value           nonuniform List<scalar> 10(274.125 274.126 274.127 274.129 274.131 274.133 274.135 274.137 274.139 274.141);
        kappaMethod     fluidThermo;
    }
    topWall
    {
        type            zeroGradient;
    }
    bottomWall
    {
        type            zeroGradient;
    }
    frontAndBackPlanes
    {
        type            empty;
    }
}


// ************************************************************************* //
