/*--------------------------------*- C++ -*----------------------------------*\
| =========                 |                                                 |
| \\      /  F ield         | OpenFOAM: The Open Source CFD Toolbox           |
|  \\    /   O peration     | Version:  2506                                  |
|   \\  /    A nd           | Website:  www.openfoam.com                      |
|    \\/     M anipulation  |                                                 |
\*---------------------------------------------------------------------------*/
FoamFile
{
    version     2.0;
    format      ascii;
    arch        "LSB;label=32;scalar=64";
    class       surfaceScalarField;
    location    "135.6";
    object      phi;
}
// * * * * * * * * * * * * * * * * * * * * * * * * * * * * * * * * * * * * * //

dimensions      [1 0 -1 0 0 0 0];

oriented        oriented;

internalField   nonuniform List<scalar> 
370
(
0.000368988
-0.00039752
0.000947788
-0.000578749
0.00144219
-0.000494331
0.00177444
-0.000332156
0.00195715
-0.00018261
0.00203626
-7.90025e-05
0.00206132
-2.49414e-05
0.00207245
-1.10016e-05
0.00209788
-2.5293e-05
0.00215651
-5.84908e-05
0.00225949
-0.000102838
0.0024126
-0.000152952
0.00261573
-0.000202969
0.00285715
-0.000241253
0.0031
-0.000242683
0.00325688
-0.0001567
0.00316297
9.40837e-05
0.00260862
0.000554524
0.00140584
0.00120294
0.00140592
0.000480738
-0.000878231
0.00127872
-0.00137666
0.00203042
-0.00124593
0.00260062
-0.000902245
0.00297778
-0.000559641
0.00320312
-0.00030421
0.00333123
-0.000152913
0.00341144
-9.10753e-05
0.00348032
-9.40312e-05
0.00355989
-0.000137909
0.00366023
-0.000203031
0.00377994
-0.000272506
0.00390369
-0.000326557
0.00399571
-0.000333116
0.00398924
-0.000236043
0.00377964
5.30713e-05
0.00323301
0.00064089
0.00222684
0.00156087
0.000894675
0.00253526
0.00230067
0.000448629
-0.00132683
0.00117286
-0.00210079
0.00185289
-0.00192584
0.00237426
-0.00142347
0.00273016
-0.000915374
0.00295633
-0.000530222
0.00309656
-0.000292979
0.00318756
-0.000181914
0.00325446
-0.000160773
0.00331104
-0.000194318
0.00336104
-0.000252875
0.00339835
-0.000309641
0.00340442
-0.000332466
0.00334357
-0.000272088
0.00315914
-5.14437e-05
0.00278167
0.000430718
0.00216123
0.00126151
0.00131337
0.0024089
0.000440341
0.00340843
0.00274107
0.000372847
-0.00169963
0.00093402
-0.00266186
0.00142383
-0.00241549
0.00177234
-0.00177181
0.00199511
-0.00113796
0.00213125
-0.000666177
0.00221566
-0.000377217
0.002271
-0.000237065
0.0023088
-0.000198402
0.00233321
-0.000218549
0.00234343
-0.000262917
0.00233359
-0.00029963
0.00228994
-0.000288632
0.00218709
-0.000169057
0.00198815
0.000147675
0.00165927
0.000759787
0.00118793
0.00173304
0.000629845
0.00296716
0.000154878
0.00388354
0.00289601
0.000277684
-0.00197727
0.000630171
-0.00301423
0.000878821
-0.00266398
0.00101145
-0.00190426
0.00106933
-0.00119565
0.00109303
-0.000689687
0.0011057
-0.000389704
0.00111487
-0.000246051
0.00112004
-0.000203393
0.00111867
-0.000216998
0.00110835
-0.000252413
0.0010853
-0.0002764
0.00104082
-0.000243973
0.000958544
-8.65999e-05
0.000817032
0.000289372
0.000602788
0.00097422
0.00033133
0.00200468
7.39753e-05
0.00322469
-5.16739e-05
0.00400933
0.0028444
0.000160709
-0.00213794
0.000258093
-0.00311149
0.000229695
-0.00263542
0.000131749
-0.00180612
2.44947e-05
-0.00108821
-6.23143e-05
-0.000602694
-0.000123506
-0.000328331
-0.000166054
-0.000203326
-0.000198401
-0.000170869
-0.000226107
-0.000189116
-0.000252356
-0.000225989
-0.000280689
-0.000247891
-0.000317223
-0.000207262
-0.000369919
-3.37217e-05
-0.000439258
0.000358897
-0.000511742
0.00104689
-0.000544897
0.00203803
-0.000469781
0.00314975
-0.000244109
0.00378379
0.00260034
-1.54014e-05
-0.00212248
-0.000237468
-0.00288929
-0.000580519
-0.00229219
-0.000920493
-0.00146597
-0.00119408
-0.000814452
-0.00139189
-0.000404703
-0.00153019
-0.000189854
-0.00162842
-0.000104932
-0.00170109
-9.8025e-05
-0.00175762
-0.000132422
-0.00180379
-0.000179652
-0.00184326
-0.00020825
-0.00187596
-0.000174383
-0.00189327
-1.62439e-05
-0.00186596
0.000331769
-0.0017507
0.000931808
-0.00148823
0.00177573
-0.0010337
0.00269537
-0.000437552
0.00318776
0.00216283
-0.000285526
-0.0018369
-0.000933723
-0.00224096
-0.00162902
-0.00159673
-0.00220034
-0.000894479
-0.00260982
-0.000404807
-0.00288376
-0.000130594
-0.00306317
-1.02778e-05
-0.00318299
1.50545e-05
-0.00326953
-1.13269e-05
-0.00333921
-6.25839e-05
-0.00340039
-0.00011831
-0.00345223
-0.000156257
-0.00348088
-0.000145579
-0.0034523
-4.46666e-05
-0.00331358
0.000193204
-0.0029934
0.000611776
-0.0024251
0.00120758
-0.00159302
0.00186342
-0.000632929
0.00222777
0.00152994
-0.00071142
-0.00112542
-0.00185262
-0.00109962
-0.00281591
-0.000633273
-0.00345404
-0.000256179
-0.00381589
-4.2798e-05
-0.00400433
5.80064e-05
-0.00409667
8.22117e-05
-0.00414709
6.56215e-05
-0.00418908
3.0808e-05
-0.0042408
-1.07266e-05
-0.00430784
-5.11359e-05
-0.00438113
-8.28393e-05
-0.00443354
-9.3039e-05
-0.00441381
-6.42721e-05
-0.00424786
2.73752e-05
-0.00383665
0.000200683
-0.00309746
0.000468506
-0.00201968
0.000785752
-0.000788867
0.000997031
0.000741109
-0.00112535
-0.00222483
-0.00285794
-0.00311395
-0.00315659
-0.00309844
-0.00301608
-0.00295033
-0.00291939
-0.00292999
-0.00298101
-0.00306374
-0.00315668
-0.00322085
-0.00319339
-0.00299262
-0.00252403
-0.00173821
-0.000741131
)
;

boundaryField
{
    leftWall
    {
        type            calculated;
        value           nonuniform List<scalar> 10(0 2.71051e-20 0 0 0 0 -4.33681e-19 0 0 0);
    }
    rightWall
    {
        type            calculated;
        value           nonuniform List<scalar> 10(0 0 0 0 0 4.33681e-19 0 0 0 0);
    }
    topWall
    {
        type            calculated;
        value           uniform 0;
    }
    bottomWall
    {
        type            calculated;
        value           uniform 0;
    }
    frontAndBackPlanes
    {
        type            empty;
    }
}


// ************************************************************************* //
