/*--------------------------------*- C++ -*----------------------------------*\
| =========                 |                                                 |
| \\      /  F ield         | OpenFOAM: The Open Source CFD Toolbox           |
|  \\    /   O peration     | Version:  2506                                  |
|   \\  /    A nd           | Website:  www.openfoam.com                      |
|    \\/     M anipulation  |                                                 |
\*---------------------------------------------------------------------------*/
FoamFile
{
    version     2.0;
    format      ascii;
    arch        "LSB;label=32;scalar=64";
    class       volVectorField;
    location    "115";
    object      U;
}
// * * * * * * * * * * * * * * * * * * * * * * * * * * * * * * * * * * * * * //

dimensions      [0 1 -1 0 0 0 0];

internalField   nonuniform List<vector> 
200
(
(0.000448419 -0.00116256 0)
(0.00232795 -0.00148908 0)
(0.0043491 -0.00110318 0)
(0.00597197 -0.000604066 0)
(0.0069838 -0.000218703 0)
(0.00751263 2.38179e-06 0)
(0.00775335 7.78323e-05 0)
(0.00788111 4.73679e-05 0)
(0.00802755 -5.16849e-05 0)
(0.00828289 -0.000194282 0)
(0.00870574 -0.000369266 0)
(0.00933299 -0.00057475 0)
(0.0101835 -0.000808108 0)
(0.0112462 -0.00104856 0)
(0.0124378 -0.00122667 0)
(0.0135058 -0.00117005 0)
(0.0138865 -0.000520492 0)
(0.0126936 0.00124551 0)
(0.00904232 0.00419636 0)
(0.00271414 0.005763 0)
(0.000510436 -0.00463964 0)
(0.00328248 -0.00722811 0)
(0.00632834 -0.00650935 0)
(0.00896271 -0.00468342 0)
(0.0108605 -0.00288163 0)
(0.0120822 -0.00156932 0)
(0.0128299 -0.000840408 0)
(0.0133139 -0.000616442 0)
(0.0137014 -0.000764904 0)
(0.0141056 -0.00115999 0)
(0.0145894 -0.0017031 0)
(0.0151711 -0.00231277 0)
(0.0158203 -0.00288772 0)
(0.0164386 -0.00324141 0)
(0.0168216 -0.00300784 0)
(0.0166111 -0.0015373 0)
(0.0152175 0.00210827 0)
(0.0120037 0.00859854 0)
(0.00695205 0.0164193 0)
(0.00117928 0.0165542 0)
(0.000494401 -0.00825419 0)
(0.00316785 -0.0133005 0)
(0.00603374 -0.0124189 0)
(0.00851741 -0.00938445 0)
(0.0103379 -0.0062264 0)
(0.0115531 -0.00380233 0)
(0.0123358 -0.00231495 0)
(0.0128553 -0.00165671 0)
(0.0132371 -0.00161181 0)
(0.0135585 -0.00195899 0)
(0.0138545 -0.00250615 0)
(0.0141215 -0.00307473 0)
(0.0143124 -0.00344236 0)
(0.0143191 -0.0032507 0)
(0.0139472 -0.00190059 0)
(0.0128783 0.0014886 0)
(0.0108268 0.00778223 0)
(0.00765002 0.0170435 0)
(0.00377524 0.0260023 0)
(0.00043216 0.0222815 0)
(0.000441291 -0.011567 0)
(0.00269767 -0.018613 0)
(0.00494042 -0.0173778 0)
(0.00676137 -0.0131888 0)
(0.00801056 -0.00885896 0)
(0.0087977 -0.00553338 0)
(0.00928669 -0.00344964 0)
(0.00960394 -0.00243412 0)
(0.00982312 -0.0021831 0)
(0.00997802 -0.0023978 0)
(0.0100773 -0.00282256 0)
(0.0101105 -0.00321487 0)
(0.0100411 -0.00326593 0)
(0.0097895 -0.00249408 0)
(0.00921231 -0.000162173 0)
(0.00812344 0.00464375 0)
(0.00639978 0.0126193 0)
(0.00407387 0.0232148 0)
(0.00161852 0.0318716 0)
(6.21444e-05 0.0248429 0)
(0.000371355 -0.0143014 0)
(0.00203045 -0.022578 0)
(0.00340454 -0.0206977 0)
(0.00432043 -0.0154415 0)
(0.00480496 -0.0102317 0)
(0.00502623 -0.00634367 0)
(0.00512792 -0.003946 0)
(0.0051832 -0.00275511 0)
(0.00521221 -0.00238395 0)
(0.00521235 -0.00248961 0)
(0.00517706 -0.00279531 0)
(0.00509791 -0.00303312 0)
(0.00495319 -0.0028405 0)
(0.00469058 -0.00164859 0)
(0.00420727 0.00136195 0)
(0.00342217 0.00706364 0)
(0.00230821 0.0159468 0)
(0.00102058 0.0269157 0)
(-3.15391e-05 0.0346495 0)
(-0.000174911 0.0253684 0)
(0.000280325 -0.0162818 0)
(0.00113607 -0.0248245 0)
(0.00140963 -0.0220257 0)
(0.0012571 -0.0159054 0)
(0.000901919 -0.0102191 0)
(0.000534823 -0.00617141 0)
(0.000239667 -0.00376713 0)
(1.88667e-05 -0.0026008 0)
(-0.00015559 -0.00223425 0)
(-0.000308481 -0.00232102 0)
(-0.000453296 -0.00259272 0)
(-0.000600589 -0.00277136 0)
(-0.000770324 -0.00245354 0)
(-0.000995879 -0.00101475 0)
(-0.00131789 0.00238036 0)
(-0.00170738 0.00849972 0)
(-0.00204665 0.0175511 0)
(-0.00208979 0.0280209 0)
(-0.00157986 0.0344724 0)
(-0.000364654 0.0242142 0)
(0.00015423 -0.0171414 0)
(-0.000154418 -0.0248084 0)
(-0.00130732 -0.020907 0)
(-0.00268109 -0.0143297 0)
(-0.00391951 -0.00873422 0)
(-0.00488413 -0.00499624 0)
(-0.00558763 -0.00289437 0)
(-0.00610014 -0.00194252 0)
(-0.00648939 -0.00170856 0)
(-0.00680112 -0.00187707 0)
(-0.00706329 -0.00219719 0)
(-0.00729625 -0.00238606 0)
(-0.00751409 -0.00203225 0)
(-0.00770658 -0.000541522 0)
(-0.00779984 0.00280823 0)
(-0.00762076 0.00861332 0)
(-0.00691968 0.0168773 0)
(-0.00545003 0.0260322 0)
(-0.00323103 0.0311578 0)
(-0.000588685 0.0213488 0)
(-0.000183911 -0.016204 0)
(-0.002247 -0.0216025 0)
(-0.00507781 -0.0168143 0)
(-0.00773365 -0.0105466 0)
(-0.00977999 -0.00575028 0)
(-0.011211 -0.00281567 0)
(-0.0121787 -0.00133195 0)
(-0.0128439 -0.000800497 0)
(-0.0133292 -0.000836418 0)
(-0.0137184 -0.00117335 0)
(-0.0140628 -0.00159783 0)
(-0.0143824 -0.0018652 0)
(-0.0146551 -0.00163254 0)
(-0.0147891 -0.000434696 0)
(-0.0145763 0.00226363 0)
(-0.0137217 0.00690279 0)
(-0.0118806 0.0134322 0)
(-0.00884478 0.0205672 0)
(-0.00490702 0.024458 0)
(-0.000827461 0.0166859 0)
(-0.000821596 -0.0123517 0)
(-0.00523794 -0.0143366 0)
(-0.00968554 -0.00959858 0)
(-0.013093 -0.00485694 0)
(-0.0152224 -0.00176907 0)
(-0.0164044 -0.000200702 0)
(-0.0170342 0.000357855 0)
(-0.0173961 0.000339837 0)
(-0.0176619 2.03899e-05 0)
(-0.0179355 -0.000435971 0)
(-0.0182698 -0.0009064 0)
(-0.0186641 -0.00125324 0)
(-0.01905 -0.00128228 0)
(-0.0192671 -0.000725362 0)
(-0.0190253 0.000745384 0)
(-0.0179027 0.00344992 0)
(-0.0154507 0.00742088 0)
(-0.0114263 0.0119312 0)
(-0.00626195 0.0146591 0)
(-0.00105808 0.0103299 0)
(-0.00197774 -0.00422276 0)
(-0.00702416 -0.00371528 0)
(-0.0106593 -0.00173993 0)
(-0.012595 -0.000338203 0)
(-0.0132566 0.000329272 0)
(-0.0132631 0.000525907 0)
(-0.0130276 0.000486749 0)
(-0.0127773 0.000353304 0)
(-0.0126329 0.000187829 0)
(-0.0126471 1.18894e-05 0)
(-0.0128352 -0.000163464 0)
(-0.0131841 -0.000324626 0)
(-0.0136374 -0.000444729 0)
(-0.01407 -0.000473171 0)
(-0.0142563 -0.000323761 0)
(-0.0138601 0.000138747 0)
(-0.0124344 0.00102707 0)
(-0.00961859 0.00228859 0)
(-0.00562427 0.00339693 0)
(-0.00133606 0.00286926 0)
)
;

boundaryField
{
    leftWall
    {
        type            fixedValue;
        value           uniform (0 0 0);
    }
    rightWall
    {
        type            fixedValue;
        value           uniform (0 0 0);
    }
    topWall
    {
        type            fixedValue;
        value           uniform (0 0 0);
    }
    bottomWall
    {
        type            fixedValue;
        value           uniform (0 0 0);
    }
    frontAndBackPlanes
    {
        type            empty;
    }
}


// ************************************************************************* //
