/*--------------------------------*- C++ -*----------------------------------*\
| =========                 |                                                 |
| \\      /  F ield         | OpenFOAM: The Open Source CFD Toolbox           |
|  \\    /   O peration     | Version:  2506                                  |
|   \\  /    A nd           | Website:  www.openfoam.com                      |
|    \\/     M anipulation  |                                                 |
\*---------------------------------------------------------------------------*/
FoamFile
{
    version     2.0;
    format      ascii;
    arch        "LSB;label=32;scalar=64";
    class       volVectorField;
    location    "126";
    object      U;
}
// * * * * * * * * * * * * * * * * * * * * * * * * * * * * * * * * * * * * * //

dimensions      [0 1 -1 0 0 0 0];

internalField   nonuniform List<vector> 
200
(
(0.000514465 -0.00127716 0)
(0.00256799 -0.00162322 0)
(0.00473514 -0.0011914 0)
(0.00644975 -0.000638222 0)
(0.00749598 -0.000213472 0)
(0.00801492 2.98428e-05 0)
(0.00821948 0.000114691 0)
(0.00829853 8.58445e-05 0)
(0.00839172 -1.51305e-05 0)
(0.00859333 -0.000160092 0)
(0.00896326 -0.00033624 0)
(0.00953759 -0.000541 0)
(0.0103335 -0.000771617 0)
(0.0113381 -0.00100762 0)
(0.012467 -0.00118019 0)
(0.0134682 -0.00111814 0)
(0.0137884 -0.000470517 0)
(0.0125558 0.00127184 0)
(0.00891009 0.00416324 0)
(0.00266573 0.00566365 0)
(0.000548216 -0.00503253 0)
(0.00349466 -0.00776584 0)
(0.00669967 -0.00691927 0)
(0.00944404 -0.00490051 0)
(0.0113912 -0.00293114 0)
(0.0126121 -0.00150231 0)
(0.0133258 -0.000705294 0)
(0.0137569 -0.000448921 0)
(0.0140833 -0.000586484 0)
(0.0144238 -0.000980311 0)
(0.0148433 -0.0015237 0)
(0.0153602 -0.00213074 0)
(0.0159436 -0.00269883 0)
(0.016495 -0.00304319 0)
(0.0168114 -0.00280287 0)
(0.0165344 -0.00133772 0)
(0.0150885 0.00226778 0)
(0.0118601 0.00864905 0)
(0.00684453 0.016282 0)
(0.00115612 0.0162848 0)
(0.000516321 -0.00883793 0)
(0.00328907 -0.0141122 0)
(0.00623649 -0.0130432 0)
(0.00876791 -0.00971915 0)
(0.0105996 -0.00630599 0)
(0.0117985 -0.0037019 0)
(0.012549 -0.00210681 0)
(0.0130287 -0.00139463 0)
(0.0133682 -0.00132886 0)
(0.0136474 -0.00167107 0)
(0.0139015 -0.00221714 0)
(0.0141268 -0.00278184 0)
(0.0142752 -0.00314112 0)
(0.0142386 -0.00294027 0)
(0.0138245 -0.00159098 0)
(0.0127251 0.00176346 0)
(0.0106657 0.00795906 0)
(0.00750904 0.0170337 0)
(0.00368792 0.0257338 0)
(0.000417532 0.0218998 0)
(0.000450967 -0.0122425 0)
(0.00273457 -0.0195276 0)
(0.00497787 -0.0180512 0)
(0.00677753 -0.0135154 0)
(0.00799268 -0.0088921 0)
(0.00874323 -0.00536849 0)
(0.0091998 -0.00317304 0)
(0.00949116 -0.00210635 0)
(0.00969024 -0.00183906 0)
(0.00982896 -0.00205264 0)
(0.00991425 -0.0024784 0)
(0.00993418 -0.00286699 0)
(0.00985143 -0.00290873 0)
(0.00958685 -0.00212833 0)
(0.0089967 0.000194275 0)
(0.00791094 0.00493415 0)
(0.00620731 0.0127597 0)
(0.00392682 0.0231058 0)
(0.00153904 0.0314633 0)
(5.06627e-05 0.02437 0)
(0.000370789 -0.0149854 0)
(0.00199948 -0.0234487 0)
(0.00331195 -0.0212801 0)
(0.00415783 -0.0156595 0)
(0.00458159 -0.0101654 0)
(0.00475954 -0.00610305 0)
(0.00483666 -0.00362095 0)
(0.00488253 -0.00240031 0)
(0.00491161 -0.00202701 0)
(0.00491707 -0.00213979 0)
(0.00488962 -0.00245058 0)
(0.00481918 -0.00268599 0)
(0.00468309 -0.00248442 0)
(0.00442956 -0.00128753 0)
(0.00395915 0.00169896 0)
(0.00319657 0.00730874 0)
(0.00212013 0.0160025 0)
(0.000889744 0.0266784 0)
(-8.98422e-05 0.0340985 0)
(-0.00017835 0.0248187 0)
(0.000273226 -0.0169128 0)
(0.00105966 -0.0255491 0)
(0.00123483 -0.0224331 0)
(0.000993021 -0.0159699 0)
(0.000576462 -0.0100449 0)
(0.000175673 -0.00587076 0)
(-0.000128044 -0.00341956 0)
(-0.000340681 -0.00225191 0)
(-0.000501167 -0.00189924 0)
(-0.000636063 -0.00200058 0)
(-0.000760819 -0.00227995 0)
(-0.000887335 -0.00245609 0)
(-0.00103577 -0.00212904 0)
(-0.00123823 -0.000689292 0)
(-0.00153122 0.00266759 0)
(-0.00188277 0.00867017 0)
(-0.00217476 0.0174991 0)
(-0.00216421 0.0276521 0)
(-0.00160426 0.033806 0)
(-0.000363968 0.0236188 0)
(0.000143845 -0.0176788 0)
(-0.00025273 -0.0253329 0)
(-0.00151055 -0.0211102 0)
(-0.0029636 -0.0142491 0)
(-0.00424393 -0.00848577 0)
(-0.00521969 -0.00467682 0)
(-0.00591406 -0.00256253 0)
(-0.00640625 -0.00162677 0)
(-0.00677002 -0.00141604 0)
(-0.00705371 -0.00160393 0)
(-0.00728682 -0.00193397 0)
(-0.00749 -0.00212276 0)
(-0.00767617 -0.0017657 0)
(-0.007833 -0.000285984 0)
(-0.00788391 0.00300975 0)
(-0.00766041 0.00868666 0)
(-0.00691968 0.0167276 0)
(-0.00542397 0.0255832 0)
(-0.00319975 0.0304511 0)
(-0.000579343 0.0207636 0)
(-0.000200431 -0.0166297 0)
(-0.00235579 -0.0219317 0)
(-0.00526925 -0.0168541 0)
(-0.00797196 -0.0103751 0)
(-0.010027 -0.00547718 0)
(-0.0114404 -0.00251625 0)
(-0.012376 -0.00104729 0)
(-0.0130019 -0.000545712 0)
(-0.0134456 -0.000611371 0)
(-0.0137932 -0.000970302 0)
(-0.0140966 -0.0014059 0)
(-0.0143753 -0.0016761 0)
(-0.0146059 -0.00144657 0)
(-0.0146956 -0.00026789 0)
(-0.014439 0.00237406 0)
(-0.0135525 0.0068991 0)
(-0.0117013 0.013241 0)
(-0.00868781 0.0201323 0)
(-0.00480557 0.0238243 0)
(-0.000806777 0.0161813 0)
(-0.000847307 -0.0126464 0)
(-0.00536399 -0.0144925 0)
(-0.00986333 -0.00953563 0)
(-0.0132665 -0.00466826 0)
(-0.0153509 -0.00154241 0)
(-0.016472 1.40051e-05 0)
(-0.0170401 0.000542337 0)
(-0.0173422 0.000492389 0)
(-0.0175539 0.000146965 0)
(-0.0177787 -0.000326403 0)
(-0.0180667 -0.000804997 0)
(-0.0184161 -0.00115395 0)
(-0.0187577 -0.00118528 0)
(-0.0189325 -0.000640623 0)
(-0.018656 0.000795442 0)
(-0.0175204 0.00342957 0)
(-0.0150913 0.0072818 0)
(-0.0111378 0.0116345 0)
(-0.00608924 0.0142312 0)
(-0.00102524 0.00998635 0)
(-0.00202918 -0.00432942 0)
(-0.00716886 -0.00374974 0)
(-0.0108094 -0.00170395 0)
(-0.012694 -0.000275049 0)
(-0.013285 0.000390991 0)
(-0.0132193 0.000573471 0)
(-0.0129184 0.000521622 0)
(-0.0126167 0.000378372 0)
(-0.0124315 0.00020612 0)
(-0.0124121 2.68726e-05 0)
(-0.0125715 -0.000149319 0)
(-0.0128923 -0.000309203 0)
(-0.0133168 -0.000426839 0)
(-0.0137206 -0.000453524 0)
(-0.0138837 -0.000306197 0)
(-0.013478 0.000145227 0)
(-0.0120714 0.0010061 0)
(-0.00931967 0.00222191 0)
(-0.00543621 0.00328261 0)
(-0.00128679 0.00276256 0)
)
;

boundaryField
{
    leftWall
    {
        type            fixedValue;
        value           uniform (0 0 0);
    }
    rightWall
    {
        type            fixedValue;
        value           uniform (0 0 0);
    }
    topWall
    {
        type            fixedValue;
        value           uniform (0 0 0);
    }
    bottomWall
    {
        type            fixedValue;
        value           uniform (0 0 0);
    }
    frontAndBackPlanes
    {
        type            empty;
    }
}


// ************************************************************************* //
