/*--------------------------------*- C++ -*----------------------------------*\
| =========                 |                                                 |
| \\      /  F ield         | OpenFOAM: The Open Source CFD Toolbox           |
|  \\    /   O peration     | Version:  2506                                  |
|   \\  /    A nd           | Website:  www.openfoam.com                      |
|    \\/     M anipulation  |                                                 |
\*---------------------------------------------------------------------------*/
FoamFile
{
    version     2.0;
    format      ascii;
    arch        "LSB;label=32;scalar=64";
    class       volScalarField;
    location    "72.4";
    object      T;
}
// * * * * * * * * * * * * * * * * * * * * * * * * * * * * * * * * * * * * * //

dimensions      [0 0 0 1 0 0 0];

internalField   nonuniform List<scalar> 
200
(
273.155
273.163
273.17
273.174
273.177
273.179
273.18
273.18
273.181
273.182
273.183
273.185
273.186
273.188
273.192
273.2
273.223
273.286
273.448
273.816
273.16
273.178
273.191
273.2
273.204
273.206
273.207
273.208
273.208
273.209
273.21
273.211
273.212
273.213
273.214
273.218
273.237
273.299
273.468
273.843
273.168
273.201
273.226
273.241
273.249
273.252
273.253
273.253
273.252
273.252
273.252
273.251
273.251
273.248
273.246
273.248
273.266
273.332
273.51
273.877
273.178
273.23
273.268
273.291
273.302
273.306
273.306
273.305
273.303
273.301
273.299
273.297
273.293
273.287
273.28
273.279
273.298
273.371
273.556
273.908
273.189
273.261
273.313
273.344
273.358
273.363
273.362
273.359
273.356
273.353
273.35
273.345
273.338
273.327
273.317
273.315
273.337
273.418
273.607
273.938
273.201
273.295
273.361
273.399
273.415
273.419
273.418
273.415
273.412
273.41
273.406
273.401
273.391
273.378
273.366
273.367
273.397
273.484
273.666
273.962
273.215
273.331
273.412
273.455
273.473
273.478
273.478
273.478
273.478
273.478
273.477
273.473
273.466
273.456
273.45
273.456
273.489
273.571
273.731
273.987
273.231
273.372
273.462
273.509
273.531
273.542
273.549
273.556
273.562
273.568
273.572
273.574
273.573
273.572
273.572
273.581
273.61
273.678
273.808
274.015
273.25
273.409
273.507
273.561
273.591
273.611
273.627
273.642
273.656
273.669
273.68
273.691
273.7
273.709
273.717
273.729
273.754
273.805
273.897
274.048
273.263
273.429
273.53
273.588
273.624
273.65
273.671
273.691
273.711
273.73
273.749
273.769
273.788
273.808
273.828
273.85
273.878
273.919
273.983
274.081
)
;

boundaryField
{
    leftWall
    {
        type            fixedValue;
        value           uniform 273.15;
    }
    rightWall
    {
        type            customNeumannDirichletCoupledBoundary;
        refValue        nonuniform List<scalar> 10(274.127 274.128 274.13 274.132 274.134 274.136 274.138 274.14 274.142 274.143);
        refGradient     uniform 0;
        valueFraction   uniform 1;
        source          uniform 0;
        value           nonuniform List<scalar> 10(274.127 274.128 274.13 274.132 274.134 274.136 274.138 274.14 274.142 274.143);
        kappaMethod     fluidThermo;
    }
    topWall
    {
        type            zeroGradient;
    }
    bottomWall
    {
        type            zeroGradient;
    }
    frontAndBackPlanes
    {
        type            empty;
    }
}


// ************************************************************************* //
