/*--------------------------------*- C++ -*----------------------------------*\
| =========                 |                                                 |
| \\      /  F ield         | OpenFOAM: The Open Source CFD Toolbox           |
|  \\    /   O peration     | Version:  2506                                  |
|   \\  /    A nd           | Website:  www.openfoam.com                      |
|    \\/     M anipulation  |                                                 |
\*---------------------------------------------------------------------------*/
FoamFile
{
    version     2.0;
    format      ascii;
    arch        "LSB;label=32;scalar=64";
    class       surfaceScalarField;
    location    "80";
    object      phi;
}
// * * * * * * * * * * * * * * * * * * * * * * * * * * * * * * * * * * * * * //

dimensions      [1 0 -1 0 0 0 0];

oriented        oriented;

internalField   nonuniform List<scalar> 
370
(
0.000159706
-0.000216851
0.00050655
-0.000346762
0.000834248
-0.000327578
0.00108876
-0.000254364
0.00126675
-0.000177835
0.00138859
-0.000121664
0.00148119
-9.24192e-05
0.00156947
-8.80895e-05
0.00167347
-0.000103806
0.00180846
-0.000134794
0.00198599
-0.000177327
0.00221409
-0.000227884
0.00249489
-0.00028059
0.00281766
-0.000322545
0.0031442
-0.000326315
0.00338308
-0.000238641
0.00334418
3.91286e-05
0.00280812
0.000536301
0.001544
0.00126432
0.00154412
0.00030901
-0.000525816
0.000858781
-0.000896412
0.00141695
-0.000885572
0.00188286
-0.000720072
0.00223696
-0.000531712
0.00249803
-0.0003825
0.00269779
-0.000291955
0.00286759
-0.000257654
0.00303244
-0.000268412
0.00320924
-0.000311363
0.00340646
-0.000374295
0.00362283
-0.000444008
0.00384339
-0.000500897
0.00403091
-0.000509798
0.00411295
-0.000408092
0.00397161
-9.70318e-05
0.00346376
0.000547244
0.00242649
0.00157384
0.000992155
0.00269889
0.00253639
0.000344879
-0.000870633
0.00092954
-0.0014809
0.00151219
-0.00146798
0.00199455
-0.00120215
0.00235977
-0.000896636
0.0026271
-0.000649526
0.00282584
-0.000490396
0.00298281
-0.00041433
0.00311762
-0.000402913
0.00324166
-0.000435104
0.00335824
-0.000490571
0.00346149
-0.000546957
0.00353281
-0.000571901
0.00353444
-0.000511111
0.00340348
-0.000276818
0.00305449
0.000252275
0.00241896
0.00118309
0.0015021
0.002491
0.000519844
0.00368139
0.00305635
0.000332277
-0.00120283
0.000865367
-0.00201379
0.00136534
-0.00196766
0.0017536
-0.00159008
0.00202891
-0.00117159
0.00221735
-0.000837615
0.00234738
-0.000620064
0.0024404
-0.000507002
0.0025095
-0.000471663
0.00256104
-0.000486294
0.0025962
-0.000525376
0.00261054
-0.000560945
0.00259079
-0.000551802
0.00250959
-0.000429556
0.00232291
-8.97733e-05
0.0019808
0.000594741
0.00145963
0.00170461
0.000810375
0.00314058
0.000222637
0.00426939
0.00327911
0.000289353
-0.0014921
0.000704725
-0.00242892
0.00104669
-0.0023093
0.00127329
-0.0018163
0.00140628
-0.00130418
0.00147921
-0.000910153
0.00151747
-0.000657938
0.00153517
-0.000524323
0.00153853
-0.000474654
0.00153002
-0.000477404
0.00151035
-0.000505334
0.00147761
-0.000527829
0.0014238
-0.000497614
0.00133074
-0.000336107
0.00116913
7.22254e-05
0.000915823
0.000848438
0.000576603
0.00204421
0.000224202
0.00349332
1.79567e-06
0.00449207
0.00328102
0.000208914
-0.00170092
0.000431454
-0.0026512
0.000540437
-0.00241792
0.00055119
-0.00182665
0.00050983
-0.00126242
0.00045077
-0.000850694
0.000389864
-0.000596642
0.000330929
-0.000465004
0.000273432
-0.000416776
0.000216774
-0.000420368
0.000160564
-0.000448744
0.000102246
-0.000469129
3.45989e-05
-0.00042958
-5.34388e-05
-0.000247674
-0.000168757
0.000187952
-0.000298664
0.000978754
-0.000400903
0.00214685
-0.000398977
0.00349175
-0.000231278
0.00432464
0.00304985
6.03977e-05
-0.00176121
-1.94402e-05
-0.00257108
-0.000226846
-0.00221014
-0.000479758
-0.00157334
-0.000718139
-0.00102364
-0.000919352
-0.000649091
-0.00108398
-0.000431637
-0.00122052
-0.000328078
-0.00133705
-0.000299875
-0.00143904
-0.000318015
-0.00153062
-0.000356792
-0.00161599
-0.000383377
-0.00169779
-0.000347402
-0.00177009
-0.00017499
-0.0018045
0.00022276
-0.00174723
0.000921882
-0.00152707
0.00192707
-0.00108728
0.00305229
-0.000471988
0.00370959
0.00257796
-0.000200672
-0.00156042
-0.000712966
-0.00205849
-0.00131089
-0.00161184
-0.00184525
-0.00103858
-0.00226759
-0.000600911
-0.00258495
-0.000331359
-0.00282315
-0.000193066
-0.00300858
-0.000142287
-0.00316179
-0.000146316
-0.00329671
-0.000182739
-0.00342153
-0.00023163
-0.00353673
-0.00026783
-0.00362946
-0.000254324
-0.0036646
-0.000139492
-0.0035786
0.00013711
-0.00328524
0.000628866
-0.002701
0.00134316
-0.00179905
0.00215063
-0.000725302
0.00263607
0.00185275
-0.000601749
-0.000958534
-0.00162397
-0.00103595
-0.00255398
-0.000681457
-0.00323444
-0.000357728
-0.00368415
-0.00015083
-0.00396986
-4.52869e-05
-0.00415593
-6.64353e-06
-0.00429343
-4.45584e-06
-0.00441591
-2.35224e-05
-0.00454176
-5.65739e-05
-0.00467888
-9.42179e-05
-0.00482051
-0.000125905
-0.00493816
-0.000136389
-0.00497362
-0.000103748
-0.00484151
5.27735e-06
-0.00441937
0.000206994
-0.00360527
0.000529328
-0.00237609
0.000921686
-0.000938992
0.00119914
0.00091383
-0.000958387
-0.00199402
-0.0026751
-0.00303245
-0.00318291
-0.00322785
-0.00323417
-0.00323832
-0.00326155
-0.00331785
-0.00341181
-0.00353747
-0.00367363
-0.00377716
-0.00377168
-0.0035645
-0.00303499
-0.00211314
-0.000913882
)
;

boundaryField
{
    leftWall
    {
        type            calculated;
        value           nonuniform List<scalar> 10(-1.69407e-21 0 0 0 0 0 0 0 0 0);
    }
    rightWall
    {
        type            calculated;
        value           nonuniform List<scalar> 10(0 0 0 0 4.33681e-19 0 0 0 0 0);
    }
    topWall
    {
        type            calculated;
        value           uniform 0;
    }
    bottomWall
    {
        type            calculated;
        value           uniform 0;
    }
    frontAndBackPlanes
    {
        type            empty;
    }
}


// ************************************************************************* //
