/*--------------------------------*- C++ -*----------------------------------*\
| =========                 |                                                 |
| \\      /  F ield         | OpenFOAM: The Open Source CFD Toolbox           |
|  \\    /   O peration     | Version:  2506                                  |
|   \\  /    A nd           | Website:  www.openfoam.com                      |
|    \\/     M anipulation  |                                                 |
\*---------------------------------------------------------------------------*/
FoamFile
{
    version     2.0;
    format      ascii;
    arch        "LSB;label=32;scalar=64";
    class       surfaceScalarField;
    location    "33.4";
    object      phi;
}
// * * * * * * * * * * * * * * * * * * * * * * * * * * * * * * * * * * * * * //

dimensions      [1 0 -1 0 0 0 0];

oriented        oriented;

internalField   nonuniform List<scalar> 
370
(
-5.07122e-05
-5.08401e-05
8.90673e-05
-0.000139774
0.000306447
-0.00021737
0.00057981
-0.00027335
0.000880204
-0.000300377
0.00118358
-0.000303361
0.00147509
-0.000291489
0.00174924
-0.000274132
0.00200837
-0.000259109
0.00226025
-0.00025187
0.00251537
-0.000255103
0.00278362
-0.000268234
0.00306927
-0.000285638
0.00336375
-0.000294466
0.00363237
-0.000268607
0.00378796
-0.000155571
0.003665
0.000122978
0.00303368
0.00063136
0.00166308
0.00137064
0.00166311
0.000110885
-0.000161718
0.000429762
-0.000458627
0.00089701
-0.000684577
0.00144608
-0.000822365
0.00202132
-0.000875537
0.00258172
-0.000863677
0.00310246
-0.000812143
0.00357289
-0.000744475
0.00399228
-0.000678406
0.00436473
-0.000624236
0.00469379
-0.000584083
0.00497646
-0.000550834
0.0051967
-0.00050581
0.00531662
-0.000414327
0.00526621
-0.00021814
0.00493758
0.000173111
0.00418991
0.000870712
0.0028892
0.00193215
0.0011795
0.00308044
0.00284268
0.000196259
-0.000357957
0.000660388
-0.000922694
0.00127962
-0.0013037
0.00195525
-0.00149783
0.00261574
-0.00153583
0.00321805
-0.00146576
0.00374284
-0.00133669
0.00418693
-0.00118833
0.00455556
-0.00104681
0.00485548
-0.000923946
0.00508882
-0.000817222
0.00524721
-0.00070904
0.00530598
-0.00056441
0.00521894
-0.000327136
0.00491659
8.43379e-05
0.00431889
0.000770919
0.00336758
0.00182214
0.00208928
0.00321061
0.000746403
0.00442348
0.00358918
0.000248522
-0.000606439
0.000794084
-0.00146812
0.00146683
-0.0019762
0.00214142
-0.00217207
0.00274159
-0.00213558
0.00323433
-0.00195805
0.0036171
-0.00171901
0.00390399
-0.00147479
0.00411446
-0.00125686
0.00426516
-0.00107427
0.00436402
-0.000915726
0.00440518
-0.00074988
0.00436481
-0.000523747
0.00419984
-0.00016191
0.00385149
0.000432896
0.00326793
0.00135467
0.0024286
0.00266166
0.00140493
0.00423448
0.000445331
0.0053833
0.00403464
0.00027283
-0.000879193
0.000816276
-0.00201131
0.0014222
-0.00258166
0.00195824
-0.00270749
0.0023615
-0.00253811
0.00262345
-0.00221925
0.00276795
-0.0018628
0.00283125
-0.00153743
0.00284842
-0.00127344
0.00284547
-0.00107079
0.00283492
-0.000904681
0.00281276
-0.000727269
0.0027564
-0.000466985
0.0026269
-3.20666e-05
0.00237171
0.000688375
0.00195465
0.001772
0.00137559
0.00324098
0.000714219
0.00489613
0.000174587
0.00592321
0.00420937
0.000244327
-0.00112339
0.000659302
-0.00242585
0.00103966
-0.00296125
0.00128183
-0.00294865
0.00135798
-0.00261317
0.00129899
-0.00215921
0.00115763
-0.00172051
0.000986979
-0.00136597
0.000827871
-0.00111362
0.000704361
-0.000946641
0.000623436
-0.000823171
0.000576314
-0.000679596
0.000540592
-0.000430752
0.000482173
2.67798e-05
0.00037536
0.00079557
0.000207262
0.00194045
6.70688e-06
0.00344189
-0.000146848
0.00505007
-0.000144571
0.00592123
0.00406492
0.000123754
-0.00124694
0.000229309
-0.00253072
0.000188903
-0.00291971
-2.16701e-05
-0.00273666
-0.000361162
-0.00227224
-0.000766168
-0.00175294
-0.00117277
-0.00131288
-0.00153513
-0.00100275
-0.00182904
-0.000818972
-0.00204798
-0.000726995
-0.00219696
-0.000673495
-0.00228604
-0.000589811
-0.00232415
-0.000391946
-0.00231695
2.02026e-05
-0.00223929
0.00071848
-0.00206552
0.00176721
-0.00174335
0.00312021
-0.00121584
0.00452299
-0.000525375
0.00523109
0.00353967
-0.000133008
-0.00111362
-0.000546255
-0.00211649
-0.00117194
-0.00229247
-0.00190604
-0.00200079
-0.00264662
-0.00153001
-0.00332284
-0.00107538
-0.00390111
-0.000733518
-0.00437562
-0.00052733
-0.00475647
-0.000437288
-0.00505849
-0.000424153
-0.00529171
-0.000439442
-0.00545314
-0.000427522
-0.00551954
-0.000324694
-0.00544108
-5.74112e-05
-0.00515179
0.000429924
-0.00457561
0.00119168
-0.00364963
0.0021948
-0.00237239
0.00324621
-0.000939659
0.00379868
0.00260013
-0.000489318
-0.000623867
-0.00151165
-0.00109287
-0.00270323
-0.001099
-0.00382661
-0.000875343
-0.00476151
-0.000593254
-0.00548273
-0.000352627
-0.0060219
-0.000193125
-0.00643296
-0.000115251
-0.00676852
-0.000100836
-0.00706499
-0.000126853
-0.00733453
-0.000169101
-0.00756001
-0.000201252
-0.00768938
-0.000194549
-0.00763111
-0.000114926
-0.00727681
7.63432e-05
-0.00648894
0.000404451
-0.00517214
0.000878544
-0.00334044
0.00141494
-0.00129811
0.00175665
0.00130215
-0.000623371
-0.0017148
-0.00281168
-0.00368468
-0.00427574
-0.00462648
-0.00481806
-0.00493206
-0.00503189
-0.0051579
-0.00532628
-0.0055269
-0.00572086
-0.00583523
-0.00575834
-0.0053534
-0.00447444
-0.00305915
-0.00130225
)
;

boundaryField
{
    leftWall
    {
        type            calculated;
        value           nonuniform List<scalar> 10(0 0 0 -2.11758e-22 0 0 -1.35525e-20 0 5.42101e-20 5.42101e-20);
    }
    rightWall
    {
        type            calculated;
        value           nonuniform List<scalar> 10(0 0 4.33681e-19 0 0 0 0 0 0 0);
    }
    topWall
    {
        type            calculated;
        value           uniform 0;
    }
    bottomWall
    {
        type            calculated;
        value           uniform 0;
    }
    frontAndBackPlanes
    {
        type            empty;
    }
}


// ************************************************************************* //
