/*--------------------------------*- C++ -*----------------------------------*\
| =========                 |                                                 |
| \\      /  F ield         | OpenFOAM: The Open Source CFD Toolbox           |
|  \\    /   O peration     | Version:  2506                                  |
|   \\  /    A nd           | Website:  www.openfoam.com                      |
|    \\/     M anipulation  |                                                 |
\*---------------------------------------------------------------------------*/
FoamFile
{
    version     2.0;
    format      ascii;
    arch        "LSB;label=32;scalar=64";
    class       volVectorField;
    location    "119.2";
    object      U;
}
// * * * * * * * * * * * * * * * * * * * * * * * * * * * * * * * * * * * * * //

dimensions      [0 1 -1 0 0 0 0];

internalField   nonuniform List<vector> 
200
(
(0.000474678 -0.00120807 0)
(0.00242334 -0.0015423 0)
(0.00450239 -0.00113808 0)
(0.0061615 -0.000617417 0)
(0.00718669 -0.000216366 0)
(0.00771121 1.35517e-05 0)
(0.00793716 9.26967e-05 0)
(0.00804519 6.28179e-05 0)
(0.00817018 -3.70509e-05 0)
(0.008404 -0.000180641 0)
(0.00880573 -0.000356136 0)
(0.00941194 -0.000561366 0)
(0.0102408 -0.00079366 0)
(0.0112805 -0.00103237 0)
(0.0124474 -0.00120831 0)
(0.0134893 -0.00114961 0)
(0.0138465 -0.000501072 0)
(0.0126385 0.00125552 0)
(0.00898991 0.00418306 0)
(0.00269503 0.00572382 0)
(0.000525456 -0.00479575 0)
(0.00336687 -0.00744167 0)
(0.006476 -0.00667179 0)
(0.009154 -0.00476884 0)
(0.0110711 -0.00290016 0)
(0.0122922 -0.00154143 0)
(0.0130261 -0.000785521 0)
(0.0134887 -0.000548873 0)
(0.0138517 -0.000693266 0)
(0.0142304 -0.00108814 0)
(0.0146885 -0.00163163 0)
(0.0152444 -0.00224051 0)
(0.0158675 -0.00281301 0)
(0.0164594 -0.00316337 0)
(0.0168163 -0.00292769 0)
(0.016579 -0.0014601 0)
(0.0151643 0.00216938 0)
(0.0119453 0.00861657 0)
(0.0069087 0.0163637 0)
(0.00116996 0.0164473 0)
(0.000503135 -0.00848629 0)
(0.0032162 -0.0136232 0)
(0.00611462 -0.0126667 0)
(0.00861732 -0.00951656 0)
(0.0104422 -0.00625664 0)
(0.0116508 -0.00376076 0)
(0.0124206 -0.00223056 0)
(0.0129241 -0.00155107 0)
(0.0132889 -0.00149819 0)
(0.0135933 -0.00184376 0)
(0.0138726 -0.00239084 0)
(0.0141228 -0.00295823 0)
(0.0142966 -0.00332291 0)
(0.0142859 -0.00312805 0)
(0.0138969 -0.00177883 0)
(0.0128163 0.0015959 0)
(0.0107622 0.00784998 0)
(0.00759333 0.0170369 0)
(0.00374005 0.0258936 0)
(0.000426247 0.0221292 0)
(0.00044518 -0.0118358 0)
(0.00271258 -0.0189769 0)
(0.0049557 -0.0176454 0)
(0.00676828 -0.0133179 0)
(0.00800398 -0.00887078 0)
(0.00877656 -0.00546609 0)
(0.00925257 -0.00333781 0)
(0.00955942 -0.00230216 0)
(0.00977053 -0.00204497 0)
(0.00991892 -0.00225956 0)
(0.0100126 -0.00268503 0)
(0.0100403 -0.00307615 0)
(0.00996543 -0.00312382 0)
(0.0097085 -0.00234893 0)
(0.00912601 -2.11346e-05 0)
(0.00803839 0.00475805 0)
(0.00632281 0.0126729 0)
(0.004015 0.0231686 0)
(0.00158662 0.0317068 0)
(5.75229e-05 0.0246539 0)
(0.00037119 -0.0145739 0)
(0.00201841 -0.0229247 0)
(0.00336806 -0.0209293 0)
(0.00425613 -0.0155275 0)
(0.00471651 -0.010204 0)
(0.00492062 -0.00624618 0)
(0.00501239 -0.00381446 0)
(0.00506377 -0.00261236 0)
(0.00509291 -0.00224072 0)
(0.00509521 -0.00234947 0)
(0.00506303 -0.00265742 0)
(0.0049873 -0.00289447 0)
(0.00484593 -0.00269853 0)
(0.00458683 -0.00150499 0)
(0.00410853 0.00149546 0)
(0.00333231 0.00715982 0)
(0.00223323 0.0159667 0)
(0.000968359 0.0268185 0)
(-5.48164e-05 0.0344278 0)
(-0.000176249 0.0251485 0)
(0.000277594 -0.0165337 0)
(0.00110593 -0.0251132 0)
(0.00134027 -0.0221876 0)
(0.0011521 -0.0159302 0)
(0.000772519 -0.0101484 0)
(0.000392675 -0.00605008 0)
(9.33968e-05 -0.00362727 0)
(-0.000124939 -0.00246011 0)
(-0.000292877 -0.00209968 0)
(-0.000438357 -0.0021926 0)
(-0.000575183 -0.00246756 0)
(-0.000714211 -0.00264534 0)
(-0.000875473 -0.00232402 0)
(-0.00109185 -0.000885134 0)
(-0.00140235 0.00249427 0)
(-0.00177683 0.00856636 0)
(-0.0020974 0.0175283 0)
(-0.00211932 0.0278715 0)
(-0.00158957 0.0342047 0)
(-0.000364375 0.023976 0)
(0.000150219 -0.0173562 0)
(-0.000193313 -0.0250178 0)
(-0.00138811 -0.0209875 0)
(-0.00279359 -0.0142965 0)
(-0.00404872 -0.00863373 0)
(-0.00501765 -0.00486739 0)
(-0.00571751 -0.002761 0)
(-0.00622185 -0.00181564 0)
(-0.00660065 -0.00159121 0)
(-0.00690105 -0.00176768 0)
(-0.00715157 -0.00209189 0)
(-0.00737261 -0.0022808 0)
(-0.00757779 -0.00192581 0)
(-0.00775604 -0.000439689 0)
(-0.00783243 0.00288811 0)
(-0.00763574 0.0086415 0)
(-0.00691906 0.016816 0)
(-0.00543929 0.0258513 0)
(-0.00321844 0.0308744 0)
(-0.00058495 0.0211147 0)
(-0.000190515 -0.0163745 0)
(-0.0022904 -0.0217338 0)
(-0.00515415 -0.0168295 0)
(-0.00782864 -0.0104771 0)
(-0.00987836 -0.00564006 0)
(-0.0113022 -0.00269506 0)
(-0.0122569 -0.00121753 0)
(-0.0129062 -0.000698253 0)
(-0.0133747 -0.00074627 0)
(-0.0137472 -0.00109213 0)
(-0.0140752 -0.00152112 0)
(-0.0143784 -0.00178966 0)
(-0.0146342 -0.00155831 0)
(-0.0147506 -0.00036826 0)
(-0.0145204 0.00230729 0)
(-0.0136532 0.00690056 0)
(-0.0118083 0.0133548 0)
(-0.0087817 0.0203925 0)
(-0.00486636 0.0242041 0)
(-0.000819187 0.0164841 0)
(-0.000831873 -0.0124698 0)
(-0.00528833 -0.014399 0)
(-0.00975652 -0.00957302 0)
(-0.0131621 -0.00478094 0)
(-0.0152733 -0.00167799 0)
(-0.0164308 -0.0001146 0)
(-0.0170359 0.000431695 0)
(-0.0173738 0.000400763 0)
(-0.0176179 7.08289e-05 0)
(-0.0178719 -0.000392352 0)
(-0.0181876 -0.000866018 0)
(-0.0185639 -0.00121367 0)
(-0.0189322 -0.00124362 0)
(-0.0191324 -0.000691645 0)
(-0.0188768 0.000765159 0)
(-0.0177491 0.00344145 0)
(-0.0153065 0.00736487 0)
(-0.0113107 0.0118122 0)
(-0.00619283 0.0144878 0)
(-0.00104494 0.0101925 0)
(-0.00199834 -0.00426553 0)
(-0.00708214 -0.0037291 0)
(-0.0107194 -0.00172548 0)
(-0.0126345 -0.000312913 0)
(-0.0132677 0.000353838 0)
(-0.013245 0.00054467 0)
(-0.0129832 0.000500439 0)
(-0.0127124 0.000363093 0)
(-0.0125517 0.000194927 0)
(-0.0125525 1.77217e-05 0)
(-0.0127292 -0.000157909 0)
(-0.0130669 -0.000318514 0)
(-0.0135088 -0.000437598 0)
(-0.0139299 -0.000465315 0)
(-0.0141069 -0.00031673 0)
(-0.0137071 0.000141332 0)
(-0.0122891 0.00101865 0)
(-0.00949899 0.00226189 0)
(-0.00554906 0.00335118 0)
(-0.00131636 0.00282659 0)
)
;

boundaryField
{
    leftWall
    {
        type            fixedValue;
        value           uniform (0 0 0);
    }
    rightWall
    {
        type            fixedValue;
        value           uniform (0 0 0);
    }
    topWall
    {
        type            fixedValue;
        value           uniform (0 0 0);
    }
    bottomWall
    {
        type            fixedValue;
        value           uniform (0 0 0);
    }
    frontAndBackPlanes
    {
        type            empty;
    }
}


// ************************************************************************* //
