/*--------------------------------*- C++ -*----------------------------------*\
| =========                 |                                                 |
| \\      /  F ield         | OpenFOAM: The Open Source CFD Toolbox           |
|  \\    /   O peration     | Version:  2506                                  |
|   \\  /    A nd           | Website:  www.openfoam.com                      |
|    \\/     M anipulation  |                                                 |
\*---------------------------------------------------------------------------*/
FoamFile
{
    version     2.0;
    format      ascii;
    arch        "LSB;label=32;scalar=64";
    class       surfaceScalarField;
    location    "144";
    object      phi;
}
// * * * * * * * * * * * * * * * * * * * * * * * * * * * * * * * * * * * * * //

dimensions      [1 0 -1 0 0 0 0];

oriented        oriented;

internalField   nonuniform List<scalar> 
370
(
0.000390544
-0.000416196
0.000993342
-0.000602753
0.00150545
-0.00051204
0.00184673
-0.0003412
0.00203129
-0.000184476
0.00210749
-7.60992e-05
0.00212706
-1.94695e-05
0.00213168
-4.49686e-06
0.00214986
-1.80597e-05
0.00220116
-5.11791e-05
0.00229675
-9.54575e-05
0.00244219
-0.0001453
0.00263712
-0.000194786
0.00286959
-0.00023232
0.00310266
-0.000232918
0.00324903
-0.000146203
0.00314701
0.000102181
0.0025885
0.000558672
0.00139094
0.00119769
0.00139102
0.00049797
-0.000914142
0.00132101
-0.00142573
0.00209261
-0.00128355
0.00267418
-0.000922669
0.00305491
-0.000565095
0.00327811
-0.00029918
0.00340041
-0.000141641
0.00347269
-7.66594e-05
0.00353306
-7.83019e-05
0.00360377
-0.000121752
0.00369506
-0.000186614
0.00380549
-0.00025559
0.00391962
-0.000308774
0.00400171
-0.000314264
0.00398546
-0.000216514
0.00376731
7.21047e-05
0.00321474
0.000654909
0.00220948
0.00156409
0.000885836
0.00252147
0.00227692
0.000458609
-0.00137272
0.00119629
-0.00216333
0.00188577
-0.00197291
0.00241111
-0.00144787
0.00276649
-0.000920335
0.00298924
-0.000521782
0.00312444
-0.000276694
0.0032097
-0.000161772
0.00327067
-0.000139131
0.00332132
-0.000172254
0.00336544
-0.000230589
0.00339684
-0.000286834
0.00339694
-0.000308724
0.00333013
-0.000247301
0.00314027
-2.64926e-05
0.00275985
0.000452683
0.00213993
0.00127499
0.00129752
0.00240665
0.000433731
0.00338539
0.00271071
0.000376212
-0.0017489
0.00093929
-0.00272631
0.00142743
-0.00246091
0.00177166
-0.00179195
0.00198919
-0.0011377
0.00212037
-0.0006528
0.00220065
-0.000356808
0.00225266
-0.000213625
0.00228781
-0.00017412
0.00231001
-0.00019429
0.00231827
-0.00023869
0.00230658
-0.000274986
0.00226111
-0.000263095
0.0021567
-0.000142732
0.00195713
0.000173246
0.00162992
0.000780061
0.00116345
0.00174163
0.000613837
0.00295642
0.000149083
0.00385028
0.00285985
0.000275746
-0.0020246
0.000621075
-0.00307153
0.000859956
-0.00269964
0.000983064
-0.0019149
0.0010334
-0.00118787
0.00105234
-0.000671566
0.00106261
-0.000366911
0.00107098
-0.000221834
0.00107636
-0.000179338
0.00107579
-0.000193553
0.00106657
-0.00022931
0.00104476
-0.000253015
0.00100161
-0.000219782
0.000920981
-6.19403e-05
0.000782261
0.000312133
0.000572489
0.000990002
0.000308147
0.00200614
6.03216e-05
0.00320441
-5.615e-05
0.00396687
0.00280375
0.000154866
-0.00217943
0.000239553
-0.00315611
0.000197549
-0.00265749
8.9065e-05
-0.00180625
-2.45887e-05
-0.00107405
-0.000114308
-0.000581682
-0.000175896
-0.00030516
-0.000217303
-0.000180267
-0.00024758
-0.000148902
-0.000272687
-0.000168288
-0.000296079
-0.000205761
-0.0003214
-0.000227536
-0.000354673
-0.000186349
-0.000403926
-1.25251e-05
-0.000468278
0.000376652
-0.000534393
0.00105629
-0.000559893
0.00203181
-0.000476867
0.00312154
-0.000245268
0.00373539
0.00255853
-2.26607e-05
-0.00215672
-0.000259378
-0.00291927
-0.000615674
-0.00230104
-0.000963981
-0.00145778
-0.00124103
-0.000796834
-0.00143907
-0.000383484
-0.00157574
-0.000168335
-0.00167115
-8.47044e-05
-0.00174016
-7.97373e-05
-0.00179268
-0.00011562
-0.00183468
-0.000163614
-0.00186975
-0.000192313
-0.00189747
-0.000158469
-0.00191021
3.67678e-07
-0.00187636
0.000342961
-0.00175463
0.000934715
-0.00148684
0.00176419
-0.00102961
0.00266444
-0.000434448
0.00314034
0.00212412
-0.00029413
-0.00186254
-0.000955288
-0.00225799
-0.00166006
-0.00159612
-0.00223533
-0.000882353
-0.0026442
-0.000387811
-0.00291481
-0.000112723
-0.00308931
6.31264e-06
-0.00320337
2.95045e-05
-0.00328396
9.9888e-07
-0.00334797
-5.14697e-05
-0.00340357
-0.000107869
-0.00344978
-0.000145968
-0.00347271
-0.000135406
-0.00343677
-3.54264e-05
-0.00329285
0.000199174
-0.00296931
0.000611321
-0.00240132
0.00119633
-0.0015746
0.00183784
-0.000624412
0.00219024
0.00149975
-0.000721805
-0.00114068
-0.00187427
-0.0011054
-0.00284103
-0.000629208
-0.00347583
-0.000247402
-0.00382966
-3.38333e-05
-0.00401
6.77514e-05
-0.0040936
9.00536e-05
-0.00413593
7.19604e-05
-0.00417099
3.61841e-05
-0.004216
-6.33496e-06
-0.0042768
-4.69446e-05
-0.00434392
-7.8729e-05
-0.00439029
-8.89302e-05
-0.00436513
-6.04735e-05
-0.00419559
2.97412e-05
-0.00378458
0.000200425
-0.00305141
0.000463254
-0.00198691
0.000773429
-0.000774887
0.000978285
0.00072489
-0.00114062
-0.0022459
-0.00287496
-0.00312222
-0.00315591
-0.00308802
-0.00299784
-0.00292576
-0.00288946
-0.00289568
-0.00294252
-0.00302115
-0.00310999
-0.00317038
-0.00314056
-0.00294006
-0.00247673
-0.00170324
-0.00072491
)
;

boundaryField
{
    leftWall
    {
        type            calculated;
        value           nonuniform List<scalar> 10(0 -2.71051e-20 0 0 -2.1684e-19 0 0 0 0 0);
    }
    rightWall
    {
        type            calculated;
        value           nonuniform List<scalar> 10(0 2.1684e-19 0 -4.33681e-19 0 0 0 0 0 0);
    }
    topWall
    {
        type            calculated;
        value           uniform 0;
    }
    bottomWall
    {
        type            calculated;
        value           uniform 0;
    }
    frontAndBackPlanes
    {
        type            empty;
    }
}


// ************************************************************************* //
