/*--------------------------------*- C++ -*----------------------------------*\
| =========                 |                                                 |
| \\      /  F ield         | OpenFOAM: The Open Source CFD Toolbox           |
|  \\    /   O peration     | Version:  2506                                  |
|   \\  /    A nd           | Website:  www.openfoam.com                      |
|    \\/     M anipulation  |                                                 |
\*---------------------------------------------------------------------------*/
FoamFile
{
    version     2.0;
    format      ascii;
    arch        "LSB;label=32;scalar=64";
    class       volScalarField;
    location    "144";
    object      T;
}
// * * * * * * * * * * * * * * * * * * * * * * * * * * * * * * * * * * * * * //

dimensions      [0 0 0 1 0 0 0];

internalField   nonuniform List<scalar> 
200
(
273.17
273.204
273.229
273.246
273.258
273.266
273.273
273.278
273.283
273.288
273.293
273.298
273.303
273.309
273.315
273.326
273.351
273.412
273.56
273.877
273.181
273.236
273.273
273.296
273.308
273.314
273.318
273.32
273.323
273.326
273.329
273.333
273.337
273.341
273.344
273.351
273.372
273.431
273.583
273.901
273.196
273.278
273.334
273.366
273.382
273.388
273.389
273.389
273.388
273.388
273.389
273.39
273.391
273.391
273.39
273.394
273.412
273.472
273.627
273.932
273.212
273.321
273.396
273.438
273.457
273.463
273.462
273.459
273.456
273.453
273.451
273.45
273.447
273.442
273.438
273.438
273.455
273.518
273.675
273.961
273.227
273.363
273.455
273.505
273.525
273.529
273.526
273.52
273.515
273.512
273.508
273.504
273.498
273.49
273.483
273.481
273.501
273.57
273.727
273.987
273.242
273.405
273.512
273.566
273.585
273.586
273.581
273.575
273.571
273.568
273.564
273.56
273.552
273.543
273.536
273.538
273.564
273.635
273.78
274.008
273.26
273.451
273.567
273.62
273.637
273.638
273.636
273.634
273.633
273.632
273.631
273.628
273.622
273.616
273.613
273.619
273.646
273.712
273.836
274.029
273.282
273.496
273.617
273.67
273.69
273.697
273.7
273.704
273.708
273.712
273.715
273.716
273.716
273.715
273.715
273.723
273.747
273.801
273.899
274.052
273.306
273.537
273.661
273.718
273.744
273.759
273.769
273.778
273.787
273.795
273.803
273.811
273.817
273.823
273.83
273.84
273.86
273.899
273.969
274.078
273.323
273.559
273.682
273.741
273.772
273.79
273.804
273.817
273.829
273.842
273.855
273.869
273.882
273.897
273.912
273.929
273.951
273.983
274.031
274.102
)
;

boundaryField
{
    leftWall
    {
        type            fixedValue;
        value           uniform 273.15;
    }
    rightWall
    {
        type            customNeumannDirichletCoupledBoundary;
        refValue        nonuniform List<scalar> 10(274.131 274.132 274.134 274.136 274.138 274.139 274.141 274.143 274.144 274.145);
        refGradient     uniform 0;
        valueFraction   uniform 1;
        source          uniform 0;
        value           nonuniform List<scalar> 10(274.131 274.132 274.134 274.136 274.138 274.139 274.141 274.143 274.144 274.145);
        kappaMethod     fluidThermo;
    }
    topWall
    {
        type            zeroGradient;
    }
    bottomWall
    {
        type            zeroGradient;
    }
    frontAndBackPlanes
    {
        type            empty;
    }
}


// ************************************************************************* //
