/*--------------------------------*- C++ -*----------------------------------*\
| =========                 |                                                 |
| \\      /  F ield         | OpenFOAM: The Open Source CFD Toolbox           |
|  \\    /   O peration     | Version:  2506                                  |
|   \\  /    A nd           | Website:  www.openfoam.com                      |
|    \\/     M anipulation  |                                                 |
\*---------------------------------------------------------------------------*/
FoamFile
{
    version     2.0;
    format      ascii;
    arch        "LSB;label=32;scalar=64";
    class       volVectorField;
    location    "144";
    object      U;
}
// * * * * * * * * * * * * * * * * * * * * * * * * * * * * * * * * * * * * * //

dimensions      [0 1 -1 0 0 0 0];

internalField   nonuniform List<vector> 
200
(
(0.000604756 -0.00143433 0)
(0.00289671 -0.00180758 0)
(0.00526506 -0.00131366 0)
(0.00710765 -0.000687204 0)
(0.00820453 -0.000209034 0)
(0.00871427 6.46e-05 0)
(0.00887417 0.000162699 0)
(0.0088918 0.000136628 0)
(0.0089165 3.31974e-05 0)
(0.00904741 -0.000114675 0)
(0.00934664 -0.000291867 0)
(0.00984934 -0.00049501 0)
(0.0105703 -0.000721209 0)
(0.0114941 -0.000950328 0)
(0.0125339 -0.00111426 0)
(0.013438 -0.00104336 0)
(0.0136674 -0.000396017 0)
(0.0123717 0.00131393 0)
(0.0087277 0.00411993 0)
(0.0025979 0.00552415 0)
(0.000600115 -0.0055713 0)
(0.00378553 -0.00850427 0)
(0.00720908 -0.00748621 0)
(0.0101059 -0.00520767 0)
(0.0121237 -0.00301217 0)
(0.0133476 -0.00142537 0)
(0.0140183 -0.00053482 0)
(0.0143802 -0.000232399 0)
(0.0146257 -0.000352725 0)
(0.0148817 -0.000741996 0)
(0.0152151 -0.00128264 0)
(0.0156445 -0.00188272 0)
(0.016138 -0.00243758 0)
(0.0165965 -0.00276414 0)
(0.016819 -0.00250764 0)
(0.0164505 -0.00104118 0)
(0.0149318 0.00251359 0)
(0.0116761 0.00874336 0)
(0.006703 0.0161072 0)
(0.00112537 0.0159134 0)
(0.000546396 -0.00963826 0)
(0.00345471 -0.0152261 0)
(0.00651363 -0.0139045 0)
(0.00911085 -0.0101895 0)
(0.0109587 -0.00643174 0)
(0.0121367 -0.00358378 0)
(0.0128443 -0.00184139 0)
(0.0132707 -0.0010536 0)
(0.0135535 -0.000956157 0)
(0.0137756 -0.00128794 0)
(0.0139734 -0.00182875 0)
(0.0141424 -0.0023841 0)
(0.014234 -0.00272715 0)
(0.0141397 -0.00250739 0)
(0.0136694 -0.00115068 0)
(0.012526 0.00216592 0)
(0.0104526 0.00823418 0)
(0.00732263 0.0170534 0)
(0.00357294 0.0253883 0)
(0.000398453 0.0213814 0)
(0.000463904 -0.0131672 0)
(0.00278333 -0.020781 0)
(0.00502674 -0.0189786 0)
(0.00679708 -0.013974 0)
(0.00796567 -0.0089544 0)
(0.00866639 -0.00516278 0)
(0.00907884 -0.00281423 0)
(0.00933463 -0.00167529 0)
(0.00950575 -0.00138266 0)
(0.00962192 -0.00159151 0)
(0.00968788 -0.00201554 0)
(0.00968995 -0.00239581 0)
(0.00958979 -0.00242086 0)
(0.00930859 -0.00162335 0)
(0.00870191 0.000693615 0)
(0.00762156 0.00535116 0)
(0.00594606 0.0129813 0)
(0.00372852 0.02299 0)
(0.00143298 0.0309299 0)
(3.55707e-05 0.0237315 0)
(0.000369357 -0.0159186 0)
(0.00195417 -0.0246399 0)
(0.00318209 -0.0220824 0)
(0.00393228 -0.0159696 0)
(0.00427286 -0.0100921 0)
(0.00439209 -0.0057952 0)
(0.00443588 -0.00319457 0)
(0.00446782 -0.00192987 0)
(0.00449569 -0.00155065 0)
(0.00450724 -0.00167064 0)
(0.00448973 -0.00198625 0)
(0.00443087 -0.00221617 0)
(0.00430681 -0.00199934 0)
(0.00406638 -0.00079108 0)
(0.00361494 0.00216888 0)
(0.00288488 0.00766155 0)
(0.00186174 0.0161055 0)
(0.000711033 0.026385 0)
(-0.000169237 0.0333704 0)
(-0.000183365 0.0240785 0)
(0.000260918 -0.0177664 0)
(0.000949975 -0.0265401 0)
(0.000992586 -0.0229972 0)
(0.000629325 -0.0160709 0)
(0.000128472 -0.00982142 0)
(-0.00031293 -0.00547644 0)
(-0.000627594 -0.00296591 0)
(-0.000836647 -0.00178969 0)
(-0.000980258 -0.00145094 0)
(-0.00109148 -0.00156966 0)
(-0.00118943 -0.00185803 0)
(-0.00128776 -0.00202938 0)
(-0.00140695 -0.00168771 0)
(-0.00157817 -0.000243309 0)
(-0.00183123 0.00306621 0)
(-0.00212927 0.00891693 0)
(-0.00235425 0.0174502 0)
(-0.00226779 0.027175 0)
(-0.00163791 0.0329192 0)
(-0.0003631 0.0228177 0)
(0.00011761 -0.0184045 0)
(-0.000401466 -0.026046 0)
(-0.00178993 -0.0213954 0)
(-0.00334924 -0.0141549 0)
(-0.00468668 -0.00816514 0)
(-0.00567734 -0.00425722 0)
(-0.00636148 -0.00212269 0)
(-0.00683022 -0.00120287 0)
(-0.00716161 -0.00102209 0)
(-0.00740802 -0.00123589 0)
(-0.00760185 -0.00157928 0)
(-0.00776433 -0.00176783 0)
(-0.00790709 -0.00140598 0)
(-0.00801666 6.0196e-05 0)
(-0.00801093 0.00328744 0)
(-0.0077251 0.00879645 0)
(-0.00692739 0.0165399 0)
(-0.00539278 0.0249909 0)
(-0.00315863 0.0295058 0)
(-0.000566766 0.0199757 0)
(-0.000224711 -0.0172044 0)
(-0.00250676 -0.0223765 0)
(-0.0055319 -0.0169156 0)
(-0.00829942 -0.0101563 0)
(-0.0103682 -0.00512107 0)
(-0.0117595 -0.00212091 0)
(-0.0126535 -0.000666669 0)
(-0.013228 -0.000201052 0)
(-0.0136138 -0.000307045 0)
(-0.0139057 -0.000696033 0)
(-0.0141548 -0.00114685 0)
(-0.0143795 -0.00142098 0)
(-0.0145538 -0.00119559 0)
(-0.0145814 -4.20005e-05 0)
(-0.0142629 0.0025267 0)
(-0.0133322 0.00690065 0)
(-0.0114654 0.0129911 0)
(-0.00847913 0.0195528 0)
(-0.00466956 0.0229735 0)
(-0.000778899 0.0155016 0)
(-0.000882148 -0.0130402 0)
(-0.00553472 -0.0147013 0)
(-0.010105 -0.00945479 0)
(-0.0135049 -0.00442052 0)
(-0.0155306 -0.00124258 0)
(-0.0165704 0.000299793 0)
(-0.017055 0.000789247 0)
(-0.0172753 0.000698117 0)
(-0.0174157 0.000320456 0)
(-0.0175752 -0.000175119 0)
(-0.0178012 -0.000665137 0)
(-0.0180907 -0.00101745 0)
(-0.0183727 -0.0010519 0)
(-0.01849 -0.000523268 0)
(-0.0181656 0.000866066 0)
(-0.017011 0.00340556 0)
(-0.0146106 0.00709779 0)
(-0.0107507 0.0112372 0)
(-0.00585682 0.0136554 0)
(-0.000981007 0.00952321 0)
(-0.00209796 -0.00447132 0)
(-0.00736191 -0.00379506 0)
(-0.0110096 -0.00165582 0)
(-0.0128271 -0.000190263 0)
(-0.0133261 0.000475116 0)
(-0.0131668 0.000639338 0)
(-0.0127797 0.000569944 0)
(-0.012409 0.000413418 0)
(-0.0121686 0.00023336 0)
(-0.0121031 4.963e-05 0)
(-0.0122224 -0.000128439 0)
(-0.0125041 -0.000287341 0)
(-0.0128887 -0.000402208 0)
(-0.0132531 -0.000426893 0)
(-0.013384 -0.000282616 0)
(-0.0129648 0.000153882 0)
(-0.0115831 0.000977918 0)
(-0.00891696 0.00213225 0)
(-0.00518259 0.00312868 0)
(-0.00122032 0.00261879 0)
)
;

boundaryField
{
    leftWall
    {
        type            fixedValue;
        value           uniform (0 0 0);
    }
    rightWall
    {
        type            fixedValue;
        value           uniform (0 0 0);
    }
    topWall
    {
        type            fixedValue;
        value           uniform (0 0 0);
    }
    bottomWall
    {
        type            fixedValue;
        value           uniform (0 0 0);
    }
    frontAndBackPlanes
    {
        type            empty;
    }
}


// ************************************************************************* //
