/*--------------------------------*- C++ -*----------------------------------*\
| =========                 |                                                 |
| \\      /  F ield         | OpenFOAM: The Open Source CFD Toolbox           |
|  \\    /   O peration     | Version:  2506                                  |
|   \\  /    A nd           | Website:  www.openfoam.com                      |
|    \\/     M anipulation  |                                                 |
\*---------------------------------------------------------------------------*/
FoamFile
{
    version     2.0;
    format      ascii;
    arch        "LSB;label=32;scalar=64";
    class       volScalarField;
    location    "10.6";
    object      p_rgh;
}
// * * * * * * * * * * * * * * * * * * * * * * * * * * * * * * * * * * * * * //

dimensions      [1 -1 -2 0 0 0 0];

internalField   nonuniform List<scalar> 
200
(
100000
100000
100000
100000
100000
100000
100000
100000
100000
100000
100000
100000
99999.9
99999.9
99999.8
99999.6
99999.5
99999.2
99998.8
99998.2
100000
100000
100000
100000
100000
100000
100000
100000
100000
100000
100000
100000
100000
99999.9
99999.8
99999.7
99999.6
99999.3
99998.6
99997
100000
100000
100000
100000
100000
100000
100000
100000
100000
100000
100000
100000
100000
100000
99999.9
99999.8
99999.6
99999.1
99997.9
99995.2
100000
100000
100000
100000
100000
100000
100000
100000
100000
100000
100000
100000
100000
100000
100000
99999.9
99999.6
99998.8
99996.9
99993.2
100000
100000
100000
100000
100000
100000
100000
100000
100000
100000
100000
100000
100000
100000
100000
99999.9
99999.5
99998.4
99995.8
99991.1
100000
100000
100000
100000
100000
100000
100000
100000
100000
100000
100000
100000
100000
100000
100000
100000
99999.3
99997.8
99994.6
99988.9
100000
100000
100000
100001
100001
100001
100001
100001
100001
100001
100001
100001
100001
100000
100000
99999.8
99998.9
99997
99993.2
99986.8
100000
100000
100001
100001
100001
100001
100001
100001
100001
100001
100001
100001
100001
100000
99999.9
99999.2
99998
99995.7
99991.6
99984.9
100000
100000
100001
100001
100001
100001
100001
100001
100001
100001
100001
100001
100001
100000
99999.1
99997.8
99996.1
99993.6
99989.6
99983
100000
100000
100001
100001
100001
100001
100001
100001
100001
100001
100001
100001
100001
99999.8
99998.4
99996.5
99994.2
99991.4
99987.6
99981.6
)
;

boundaryField
{
    leftWall
    {
        type            fixedFluxPressure;
        gradient        nonuniform List<scalar> 10(-0.0162448 -0.177926 -0.617927 -1.34272 -2.36066 -3.68992 -5.32913 -7.23024 -9.22299 -11.0772);
        value           nonuniform List<scalar> 10(100000 100000 100000 100000 100000 100000 100000 99999.9 99999.8 99999.8);
    }
    rightWall
    {
        type            fixedFluxPressure;
        gradient        nonuniform List<scalar> 10(-18.3471 -51.1865 -77.9472 -100.653 -120.816 -138.419 -156.401 -172.181 -180.841 -180.344);
        value           nonuniform List<scalar> 10(99997.7 99995.7 99993.3 99990.7 99988.1 99985.5 99982.9 99980.6 99978.5 99977);
    }
    topWall
    {
        type            fixedFluxPressure;
        gradient        uniform 0;
        value           nonuniform List<scalar> 
20
(
100000
100000
100000
100000
100000
100000
100000
100000
100000
100000
100000
100000
99999.9
99999.9
99999.8
99999.6
99999.5
99999.2
99998.8
99998.2
)
;
    }
    bottomWall
    {
        type            fixedFluxPressure;
        gradient        uniform 0;
        value           nonuniform List<scalar> 
20
(
100000
100000
100001
100001
100001
100001
100001
100001
100001
100001
100001
100001
100001
99999.8
99998.4
99996.5
99994.2
99991.4
99987.6
99981.6
)
;
    }
    frontAndBackPlanes
    {
        type            empty;
    }
}


// ************************************************************************* //
