/*--------------------------------*- C++ -*----------------------------------*\
| =========                 |                                                 |
| \\      /  F ield         | OpenFOAM: The Open Source CFD Toolbox           |
|  \\    /   O peration     | Version:  2506                                  |
|   \\  /    A nd           | Website:  www.openfoam.com                      |
|    \\/     M anipulation  |                                                 |
\*---------------------------------------------------------------------------*/
FoamFile
{
    version     2.0;
    format      ascii;
    arch        "LSB;label=32;scalar=64";
    class       volScalarField;
    location    "0.2";
    object      p;
}
// * * * * * * * * * * * * * * * * * * * * * * * * * * * * * * * * * * * * * //

dimensions      [1 -1 -2 0 0 0 0];

internalField   nonuniform List<scalar> 
200
(
100000
99999.7
99998.7
99997.6
99996.6
99995.8
99995.2
99994.6
99994.2
99993.8
99993.5
99993.2
99993
99992.8
99992.7
99992.6
99992.5
99992.5
99992.5
99992.5
99732.3
99731.8
99731
99730.1
99729.2
99728.5
99727.9
99727.4
99726.9
99726.5
99726.2
99726
99725.8
99725.6
99725.5
99725.4
99725.4
99725.3
99725.2
99725.2
99463.7
99463.4
99463
99462.4
99461.9
99461.4
99461
99460.5
99460.2
99459.8
99459.5
99459.3
99459
99458.9
99458.7
99458.6
99458.5
99458.4
99458.4
99458.4
99195.1
99195
99194.8
99194.5
99194.2
99193.9
99193.5
99193.2
99192.9
99192.6
99192.4
99192.2
99192
99191.8
99191.6
99191.5
99191.4
99191.4
99191.4
99191.3
98927
98926.9
98926.8
98926.6
98926.4
98926.2
98926
98925.7
98925.5
98925.3
98925.1
98924.9
98924.8
98924.6
98924.5
98924.4
98924.3
98924.3
98924.2
98924.2
98659.1
98659.1
98659
98658.9
98658.7
98658.6
98658.4
98658.3
98658.1
98658
98657.8
98657.7
98657.5
98657.4
98657.3
98657.2
98657.2
98657.1
98657.1
98657.1
98391.5
98391.4
98391.4
98391.3
98391.2
98391.1
98391
98390.9
98390.8
98390.7
98390.5
98390.4
98390.3
98390.2
98390.1
98390.1
98390
98389.9
98389.9
98389.9
98124
98124
98124
98123.9
98123.9
98123.8
98123.7
98123.6
98123.5
98123.5
98123.4
98123.3
98123.2
98123.1
98123
98122.9
98122.9
98122.8
98122.8
98122.8
97856.9
97856.9
97856.8
97856.8
97856.8
97856.8
97856.8
97856.7
97856.7
97856.6
97856.5
97856.4
97856.3
97856.2
97856.1
97856
97855.9
97855.9
97855.9
97855.8
97589.4
97589.4
97589.4
97589.4
97589.4
97589.3
97589.3
97589.2
97589.1
97589
97589
97588.9
97588.8
97588.8
97588.7
97588.7
97588.6
97588.5
97588.4
97588.5
)
;

boundaryField
{
    leftWall
    {
        type            zeroGradient;
    }
    rightWall
    {
        type            zeroGradient;
    }
    topWall
    {
        type            zeroGradient;
    }
    bottomWall
    {
        type            zeroGradient;
    }
    frontAndBackPlanes
    {
        type            empty;
    }
}


// ************************************************************************* //
