/*--------------------------------*- C++ -*----------------------------------*\
| =========                 |                                                 |
| \\      /  F ield         | OpenFOAM: The Open Source CFD Toolbox           |
|  \\    /   O peration     | Version:  2506                                  |
|   \\  /    A nd           | Website:  www.openfoam.com                      |
|    \\/     M anipulation  |                                                 |
\*---------------------------------------------------------------------------*/
FoamFile
{
    version     2.0;
    format      ascii;
    arch        "LSB;label=32;scalar=64";
    class       volVectorField;
    location    "127.8";
    object      U;
}
// * * * * * * * * * * * * * * * * * * * * * * * * * * * * * * * * * * * * * //

dimensions      [0 1 -1 0 0 0 0];

internalField   nonuniform List<vector> 
200
(
(0.000524452 -0.00129452 0)
(0.00260432 -0.00164357 0)
(0.00479366 -0.00120486 0)
(0.00652231 -0.000643546 0)
(0.00757397 -0.000212862 0)
(0.00809168 3.38151e-05 0)
(0.00829106 0.00012011 0)
(0.00836301 9.15457e-05 0)
(0.00844836 -9.69048e-06 0)
(0.00864198 -0.000154977 0)
(0.00900397 -0.000331267 0)
(0.00957031 -0.000535888 0)
(0.0103579 -0.000766066 0)
(0.0113537 -0.00100137 0)
(0.0124729 -0.00117305 0)
(0.0134637 -0.00111012 0)
(0.0137743 -0.000462636 0)
(0.0125351 0.00127615 0)
(0.00889 0.00415832 0)
(0.00265831 0.00564841 0)
(0.000553935 -0.00509202 0)
(0.00352676 -0.00784735 0)
(0.00675586 -0.00698166 0)
(0.00951699 -0.00493399 0)
(0.0114717 -0.00293945 0)
(0.0126929 -0.00149305 0)
(0.0134015 -0.000685692 0)
(0.0138249 -0.000424289 0)
(0.0141422 -0.000560032 0)
(0.0144732 -0.00095348 0)
(0.0148831 -0.00149673 0)
(0.0153902 -0.00210318 0)
(0.0159637 -0.00267004 0)
(0.0165049 -0.00301271 0)
(0.016811 -0.00277098 0)
(0.016524 -0.00130612 0)
(0.0150703 0.00229352 0)
(0.0118392 0.00865815 0)
(0.00682865 0.016262 0)
(0.00115268 0.0162439 0)
(0.000519631 -0.00892626 0)
(0.00330735 -0.0142351 0)
(0.00626708 -0.013138 0)
(0.00880573 -0.00977051 0)
(0.0106391 -0.00631904 0)
(0.0118357 -0.00368786 0)
(0.0125813 -0.00207646 0)
(0.0130551 -0.00135598 0)
(0.0133884 -0.00128685 0)
(0.0136612 -0.00162807 0)
(0.0139091 -0.00217375 0)
(0.0141281 -0.00273763 0)
(0.0142702 -0.0030954 0)
(0.0142272 -0.00289283 0)
(0.0138068 -0.0015432 0)
(0.0127027 0.00180653 0)
(0.0106418 0.00798769 0)
(0.00748814 0.0170341 0)
(0.00367501 0.0256945 0)
(0.000415383 0.0218423 0)
(0.000452404 -0.0123446 0)
(0.00274002 -0.019666 0)
(0.00498336 -0.0181533 0)
(0.0067798 -0.0135655 0)
(0.00798981 -0.00889814 0)
(0.00873485 -0.00534476 0)
(0.00918654 -0.00313239 0)
(0.009474 -0.00205782 0)
(0.00967004 -0.00178786 0)
(0.00980631 -0.00200106 0)
(0.0098895 -0.00242679 0)
(0.00990747 -0.00281463 0)
(0.00982278 -0.00285477 0)
(0.00955632 -0.0020728 0)
(0.00896429 0.000248745 0)
(0.00787905 0.00497904 0)
(0.00617844 0.0127826 0)
(0.00390483 0.0230913 0)
(0.00152722 0.0314032 0)
(4.8969e-05 0.0242991 0)
(0.000370648 -0.0150886 0)
(0.00199457 -0.0235803 0)
(0.00329775 -0.0213685 0)
(0.0041331 -0.0156932 0)
(0.00454771 -0.0101564 0)
(0.00471918 -0.00606804 0)
(0.00479261 -0.00357289 0)
(0.00483699 -0.00234758 0)
(0.00486602 -0.00197378 0)
(0.00487222 -0.00208747 0)
(0.00484592 -0.0023989 0)
(0.00477679 -0.00263383 0)
(0.00464204 -0.00243074 0)
(0.00438993 -0.00123285 0)
(0.00392155 0.00175037 0)
(0.00316244 0.00734676 0)
(0.00209175 0.0160125 0)
(0.000870057 0.0266445 0)
(-9.86037e-05 0.0340169 0)
(-0.000178888 0.0247364 0)
(0.000271829 -0.0170072 0)
(0.00104758 -0.0256588 0)
(0.00120818 -0.0224952 0)
(0.00095292 -0.0159805 0)
(0.000527019 -0.0100196 0)
(0.000121877 -0.00582626 0)
(-0.000183084 -0.00336844 0)
(-0.000395305 -0.00220023 0)
(-0.000553685 -0.00184928 0)
(-0.000685864 -0.00195262 0)
(-0.000807623 -0.00223305 0)
(-0.000931018 -0.00240873 0)
(-0.00107623 -0.00208019 0)
(-0.00127521 -0.000640115 0)
(-0.00156379 0.00271131 0)
(-0.00190954 0.00869675 0)
(-0.00219429 0.0174926 0)
(-0.00217552 0.0275981 0)
(-0.00160795 0.0337069 0)
(-0.000363868 0.0235297 0)
(0.000140645 -0.0177593 0)
(-0.000269377 -0.0254119 0)
(-0.00154128 -0.0211413 0)
(-0.00300613 -0.0142378 0)
(-0.00429283 -0.00844931 0)
(-0.00527023 -0.00462955 0)
(-0.00596332 -0.00251353 0)
(-0.00645272 -0.00157978 0)
(-0.0068128 -0.0013723 0)
(-0.00709233 -0.00156299 0)
(-0.0073211 -0.00189446 0)
(-0.00751982 -0.0020832 0)
(-0.00770123 -0.00172561 0)
(-0.0078527 -0.000247418 0)
(-0.00789721 0.00304045 0)
(-0.00766695 0.00869843 0)
(-0.0069201 0.0167062 0)
(-0.00542028 0.0255169 0)
(-0.00319512 0.0303458 0)
(-0.000577944 0.020676 0)
(-0.000203139 -0.0166938 0)
(-0.00237246 -0.0219811 0)
(-0.00529817 -0.0168605 0)
(-0.00800794 -0.0103502 0)
(-0.0100644 -0.00543701 0)
(-0.0114752 -0.00247202 0)
(-0.012406 -0.00100516 0)
(-0.0130263 -0.000507885 0)
(-0.0134639 -0.000577795 0)
(-0.0138053 -0.000939897 0)
(-0.0141025 -0.0013771 0)
(-0.0143752 -0.00164769 0)
(-0.0145993 -0.00141859 0)
(-0.0146824 -0.000242703 0)
(-0.0144191 0.00239094 0)
(-0.0135278 0.00689906 0)
(-0.0116749 0.0132129 0)
(-0.00866451 0.0200677 0)
(-0.00479044 0.0237297 0)
(-0.000803682 0.0161058 0)
(-0.000851179 -0.0126904 0)
(-0.00538297 -0.0145159 0)
(-0.00989014 -0.00952652 0)
(-0.0132928 -0.00464043 0)
(-0.0153706 -0.00150882 0)
(-0.0164827 4.59318e-05 0)
(-0.0170417 0.000569834 0)
(-0.0173348 0.000515189 0)
(-0.0175383 0.000165992 0)
(-0.0177558 -0.000309875 0)
(-0.0180369 -0.000789694 0)
(-0.0183796 -0.00113897 0)
(-0.0187146 -0.00117065 0)
(-0.018883 -0.000627804 0)
(-0.0186012 0.000803111 0)
(-0.0174636 0.00342675 0)
(-0.0150377 0.00726122 0)
(-0.0110948 0.0115903 0)
(-0.00606341 0.0141673 0)
(-0.00102032 0.0099349 0)
(-0.00203686 -0.00434532 0)
(-0.00719046 -0.00375487 0)
(-0.0108318 -0.00169861 0)
(-0.0127089 -0.000265611 0)
(-0.0132895 0.000400319 0)
(-0.0132132 0.000580779 0)
(-0.0129026 0.000527053 0)
(-0.0125931 0.000382347 0)
(-0.0124018 0.000209043 0)
(-0.0123774 2.92443e-05 0)
(-0.0125324 -0.000147122 0)
(-0.0128489 -0.00030685 0)
(-0.013269 -0.000424143 0)
(-0.0136685 -0.00045058 0)
(-0.0138281 -0.000303572 0)
(-0.013421 0.000146199 0)
(-0.0120172 0.00100297 0)
(-0.00927494 0.00221195 0)
(-0.00540804 0.00326551 0)
(-0.00127941 0.00274659 0)
)
;

boundaryField
{
    leftWall
    {
        type            fixedValue;
        value           uniform (0 0 0);
    }
    rightWall
    {
        type            fixedValue;
        value           uniform (0 0 0);
    }
    topWall
    {
        type            fixedValue;
        value           uniform (0 0 0);
    }
    bottomWall
    {
        type            fixedValue;
        value           uniform (0 0 0);
    }
    frontAndBackPlanes
    {
        type            empty;
    }
}


// ************************************************************************* //
