/*--------------------------------*- C++ -*----------------------------------*\
| =========                 |                                                 |
| \\      /  F ield         | OpenFOAM: The Open Source CFD Toolbox           |
|  \\    /   O peration     | Version:  2506                                  |
|   \\  /    A nd           | Website:  www.openfoam.com                      |
|    \\/     M anipulation  |                                                 |
\*---------------------------------------------------------------------------*/
FoamFile
{
    version     2.0;
    format      ascii;
    arch        "LSB;label=32;scalar=64";
    class       surfaceScalarField;
    location    "73";
    object      phi;
}
// * * * * * * * * * * * * * * * * * * * * * * * * * * * * * * * * * * * * * //

dimensions      [1 0 -1 0 0 0 0];

oriented        oriented;

internalField   nonuniform List<scalar> 
370
(
0.000125685
-0.000187939
0.000435135
-0.000309372
0.000737029
-0.000301777
0.000981437
-0.000244268
0.00116197
-0.000180381
0.00129419
-0.000132046
0.00140081
-0.000106453
0.00150395
-0.000102964
0.00162221
-0.000118077
0.00177047
-0.000148072
0.00196052
-0.000189857
0.00220089
-0.000240166
0.00249401
-0.000292917
0.00282898
-0.000334752
0.00316687
-0.000337677
0.00341507
-0.000247978
0.00338031
3.49884e-05
0.00284226
0.00053827
0.00156555
0.00127691
0.00156566
0.000278342
-0.000466236
0.000784975
-0.000815881
0.00131101
-0.000827636
0.00176193
-0.000694981
0.00211634
-0.000534563
0.00238841
-0.00040389
0.00260527
-0.000323071
0.00279472
-0.000292177
0.00297964
-0.000302756
0.00317595
-0.000344148
0.00339186
-0.000405517
0.00362611
-0.000474165
0.00386362
-0.000530167
0.00406652
-0.000537388
0.00416099
-0.000431875
0.00402676
-0.000113483
0.00351896
0.000543058
0.0024696
0.0015879
0.00101209
0.00273465
0.00257787
0.000324186
-0.000790356
0.00088166
-0.00137318
0.00144626
-0.00139198
0.00192292
-0.00117135
0.00229271
-0.000904037
0.00257135
-0.000682204
0.00278496
-0.000536367
0.00295813
-0.000465029
0.00310914
-0.000453447
0.00324881
-0.000483498
0.00338026
-0.000536649
0.00349759
-0.000591172
0.00358197
-0.000614221
0.00359495
-0.000550032
0.00347196
-0.000308558
0.00312492
0.000233894
0.00248181
0.00118649
0.00154652
0.0025235
0.000538456
0.00374297
0.00311645
0.00032211
-0.00111238
0.00084652
-0.00189736
0.00134626
-0.0018914
0.00174159
-0.00156631
0.00202789
-0.00118995
0.00222839
-0.000882318
0.00236987
-0.000677454
0.00247311
-0.000567884
0.00255119
-0.000531144
0.00261073
-0.000542665
0.00265321
-0.000578755
0.00267439
-0.00061197
0.00266094
-0.000600387
0.00258494
-0.000473643
0.00240092
-0.00012415
0.00205552
0.000579676
0.00152254
0.00171984
0.000852372
0.00319401
0.000239098
0.00435652
0.00335568
0.000288676
-0.00140097
0.000711812
-0.00232024
0.00106884
-0.00224806
0.00131228
-0.00180934
0.00145972
-0.00133695
0.00154293
-0.000965104
0.00158742
-0.000721511
0.00160828
-0.000588324
0.00161292
-0.000535372
0.00160476
-0.00053409
0.00158514
-0.000558725
0.00155247
-0.000578887
0.00149887
-0.000546366
0.00140599
-0.00038034
0.00124209
4.01831e-05
0.000982089
0.000840102
0.000629668
0.00207267
0.000257444
0.00356661
1.33017e-05
0.00460096
0.0033691
0.000215506
-0.00161637
0.000458056
-0.0025625
0.000591526
-0.00238114
0.000622328
-0.0018397
0.000593252
-0.00130742
0.00053907
-0.000910475
0.000477657
-0.00065966
0.000415048
-0.000525285
0.000352437
-0.000472335
0.000290316
-0.000471546
0.000228863
-0.000496849
0.000165662
-0.000515259
9.30889e-05
-0.00047336
-9.02077e-07
-0.000285907
-0.000122479
0.000162214
-0.000260909
0.000978986
-0.000374109
0.00218631
-0.000384518
0.0035774
-0.000227309
0.00444404
0.00314191
7.30023e-05
-0.00168925
1.89518e-05
-0.00250814
-0.000163719
-0.00219804
-0.000401124
-0.00160184
-0.000634385
-0.00107371
-0.000838403
-0.000706015
-0.00101056
-0.000487073
-0.00115681
-0.000378611
-0.00128358
-0.000345145
-0.0013955
-0.000359208
-0.00149644
-0.000395489
-0.00159073
-0.000420549
-0.00168136
-0.000382309
-0.00176277
-0.000204057
-0.00180728
0.000207169
-0.00175804
0.000930185
-0.00154185
0.00197054
-0.00110075
0.00313667
-0.00047907
0.00382263
0.00266295
-0.000184694
-0.00150442
-0.000670856
-0.00202164
-0.00125127
-0.00161719
-0.00178073
-0.00107193
-0.00220861
-0.000645392
-0.00253798
-0.000376212
-0.00279131
-0.00023333
-0.00299263
-0.000176885
-0.00316121
-0.000176168
-0.00331064
-0.000209379
-0.00344916
-0.000256575
-0.00357746
-0.000291866
-0.00368263
-0.000276744
-0.00372891
-0.00015738
-0.00365068
0.000129328
-0.00335836
0.00063826
-0.00276558
0.00137812
-0.00184446
0.00221589
-0.00074455
0.00272296
0.0019185
-0.000579821
-0.000924452
-0.0015784
-0.00102271
-0.00250287
-0.00069229
-0.00319397
-0.000380392
-0.00366323
-0.000175715
-0.0039717
-6.73345e-05
-0.00418088
-2.37517e-05
-0.00433914
-1.82551e-05
-0.00447937
-3.5574e-05
-0.0046214
-6.70017e-05
-0.00477374
-0.000103896
-0.00492984
-0.000135432
-0.0050606
-0.000145669
-0.00510595
-0.000111706
-0.00497845
2.14485e-06
-0.00454998
0.000210096
-0.00371582
0.000544253
-0.00245147
0.000951795
-0.00096984
0.00124153
0.000948744
-0.000924289
-0.00194665
-0.00263852
-0.00301848
-0.00319379
-0.00326073
-0.00328411
-0.00330202
-0.00333727
-0.00340396
-0.00350757
-0.00364273
-0.00378813
-0.0038996
-0.00389722
-0.0036869
-0.00314245
-0.00219047
-0.000948804
)
;

boundaryField
{
    leftWall
    {
        type            calculated;
        value           nonuniform List<scalar> 10(0 0 0 -5.42101e-20 1.0842e-19 0 0 0 0 0);
    }
    rightWall
    {
        type            calculated;
        value           nonuniform List<scalar> 10(0 0 0 0 -4.33681e-19 0 0 0 0 0);
    }
    topWall
    {
        type            calculated;
        value           uniform 0;
    }
    bottomWall
    {
        type            calculated;
        value           uniform 0;
    }
    frontAndBackPlanes
    {
        type            empty;
    }
}


// ************************************************************************* //
