/*--------------------------------*- C++ -*----------------------------------*\
| =========                 |                                                 |
| \\      /  F ield         | OpenFOAM: The Open Source CFD Toolbox           |
|  \\    /   O peration     | Version:  2506                                  |
|   \\  /    A nd           | Website:  www.openfoam.com                      |
|    \\/     M anipulation  |                                                 |
\*---------------------------------------------------------------------------*/
FoamFile
{
    version     2.0;
    format      ascii;
    arch        "LSB;label=32;scalar=64";
    class       volVectorField;
    location    "139.2";
    object      U;
}
// * * * * * * * * * * * * * * * * * * * * * * * * * * * * * * * * * * * * * //

dimensions      [0 1 -1 0 0 0 0];

internalField   nonuniform List<vector> 
200
(
(0.00058268 -0.00139587 0)
(0.00281631 -0.00176248 0)
(0.00513539 -0.0012837 0)
(0.00694654 -0.000675113 0)
(0.00803079 -0.000209957 0)
(0.00854246 5.628e-05 0)
(0.00871286 0.000151093 0)
(0.00874491 0.000124284 0)
(0.00878581 2.15181e-05 0)
(0.00893367 -0.000125609 0)
(0.00924996 -0.000302578 0)
(0.00977002 -0.000506188 0)
(0.0105093 -0.000733563 0)
(0.0114529 -0.000964482 0)
(0.0125148 -0.00113067 0)
(0.0134433 -0.00106211 0)
(0.0136957 -0.000414888 0)
(0.0124162 0.00130301 0)
(0.00877244 0.00413029 0)
(0.00261463 0.00555858 0)
(0.000587377 -0.0054394 0)
(0.00371425 -0.00832352 0)
(0.00708426 -0.00734719 0)
(0.00994364 -0.00513185 0)
(0.0119439 -0.00299134 0)
(0.0131667 -0.00144297 0)
(0.0138477 -0.000575246 0)
(0.0142263 -0.000284149 0)
(0.0144914 -0.000408777 0)
(0.0147677 -0.000799334 0)
(0.015122 -0.00134092 0)
(0.0155726 -0.00194303 0)
(0.016088 -0.00250156 0)
(0.0165693 -0.00283301 0)
(0.016815 -0.00258114 0)
(0.0164692 -0.00111579 0)
(0.0149686 0.00245093 0)
(0.0117202 0.00871796 0)
(0.00673726 0.0161488 0)
(0.00113284 0.0160046 0)
(0.000539001 -0.0094422 0)
(0.0034141 -0.0149533 0)
(0.00644571 -0.0136933 0)
(0.00902677 -0.0100735 0)
(0.0108706 -0.00639967 0)
(0.0120536 -0.00361108 0)
(0.0127717 -0.0019046 0)
(0.0132111 -0.00113533 0)
(0.0135077 -0.00104582 0)
(0.0137438 -0.00138042 0)
(0.0139553 -0.00192285 0)
(0.0141381 -0.00248088 0)
(0.0142435 -0.00282841 0)
(0.0141633 -0.00261396 0)
(0.0137067 -0.00125995 0)
(0.0125741 0.00206498 0)
(0.0105043 0.00816378 0)
(0.00736785 0.0170456 0)
(0.00360081 0.025471 0)
(0.000403065 0.0215081 0)
(0.00046074 -0.0129407 0)
(0.00277146 -0.0204741 0)
(0.0050149 -0.0187513 0)
(0.00679244 -0.013861 0)
(0.00797243 -0.00893787 0)
(0.00868539 -0.00521163 0)
(0.0091087 -0.00290045 0)
(0.0093733 -0.00177926 0)
(0.00955138 -0.00149301 0)
(0.00967318 -0.00170323 0)
(0.00974395 -0.00212793 0)
(0.00975044 -0.00251056 0)
(0.00965453 -0.00254012 0)
(0.00937733 -0.0017474 0)
(0.00877462 0.000570161 0)
(0.00769279 0.00524704 0)
(0.00601021 0.0129243 0)
(0.00377707 0.0230155 0)
(0.00145885 0.0310586 0)
(3.92323e-05 0.0238874 0)
(0.000369733 -0.0156901 0)
(0.00196543 -0.0243484 0)
(0.00321416 -0.0218857 0)
(0.00398776 -0.0158927 0)
(0.00434843 -0.0101084 0)
(0.00448214 -0.00586967 0)
(0.00453448 -0.00329779 0)
(0.00456993 -0.00204388 0)
(0.00459824 -0.00166624 0)
(0.00460846 -0.00178461 0)
(0.00458864 -0.00209919 0)
(0.00452702 -0.00233067 0)
(0.00440003 -0.0021179 0)
(0.00415638 -0.000912891 0)
(0.00370018 0.00205301 0)
(0.00296193 0.00757364 0)
(0.00192545 0.0160781 0)
(0.000755003 0.0264545 0)
(-0.000149723 0.033547 0)
(-0.000182107 0.0242591 0)
(0.000263882 -0.0175576 0)
(0.000977046 -0.0262981 0)
(0.00105259 -0.0228593 0)
(0.000718982 -0.016046 0)
(0.00023569 -0.00987642 0)
(-0.00019541 -0.00557032 0)
(-0.000504021 -0.00307528 0)
(-0.000714236 -0.00190178 0)
(-0.000862085 -0.0015599 0)
(-0.000979032 -0.00167451 0)
(-0.00108349 -0.00196079 0)
(-0.00118875 -0.00213347 0)
(-0.00131515 -0.00179567 0)
(-0.00149385 -0.000352813 0)
(-0.00175657 0.00296804 0)
(-0.00206796 0.00885546 0)
(-0.00230969 0.0174606 0)
(-0.00224214 0.02729 0)
(-0.0016296 0.0331348 0)
(-0.000363306 0.0230131 0)
(0.000123462 -0.0182275 0)
(-0.000365561 -0.0258722 0)
(-0.00172143 -0.0213256 0)
(-0.00325498 -0.0141774 0)
(-0.00457923 -0.00824287 0)
(-0.00556612 -0.00435785 0)
(-0.00625186 -0.00222915 0)
(-0.00672603 -0.00130595 0)
(-0.00706519 -0.00111788 0)
(-0.00732067 -0.00132528 0)
(-0.00752415 -0.00166533 0)
(-0.00769677 -0.00185381 0)
(-0.00785031 -0.00149289 0)
(-0.00797074 -2.32236e-05 0)
(-0.00797814 0.00322007 0)
(-0.00770792 0.00876941 0)
(-0.00692463 0.0165851 0)
(-0.00539995 0.0251348 0)
(-0.00316853 0.0297362 0)
(-0.000569824 0.020168 0)
(-0.000218816 -0.0170647 0)
(-0.00246982 -0.0222683 0)
(-0.00546752 -0.0169003 0)
(-0.00821912 -0.010209 0)
(-0.0102844 -0.00520738 0)
(-0.0116809 -0.00221714 0)
(-0.0125851 -0.000760105 0)
(-0.0131727 -0.00028564 0)
(-0.0135725 -0.000381598 0)
(-0.0138778 -0.000762987 0)
(-0.0141398 -0.00120988 0)
(-0.0143773 -0.00148285 0)
(-0.0145649 -0.00125621 0)
(-0.0146085 -9.63017e-05 0)
(-0.014306 0.00248984 0)
(-0.0133859 0.0069003 0)
(-0.0115228 0.0130519 0)
(-0.00852997 0.0196941 0)
(-0.00470276 0.0231811 0)
(-0.000785715 0.0156675 0)
(-0.000873658 -0.0129447 0)
(-0.00549316 -0.0146509 0)
(-0.0100462 -0.00947441 0)
(-0.0134468 -0.00448055 0)
(-0.0154869 -0.00131539 0)
(-0.0165467 0.000230201 0)
(-0.0170516 0.00072891 0)
(-0.0172913 0.000647499 0)
(-0.0174491 0.000277503 0)
(-0.0176245 -0.000212649 0)
(-0.0178656 -0.000699778 0)
(-0.0181696 -0.00105121 0)
(-0.0184661 -0.00108497 0)
(-0.0185975 -0.000552582 0)
(-0.018285 0.000848389 0)
(-0.0171351 0.00341116 0)
(-0.0147277 0.00714254 0)
(-0.0108452 0.0113341 0)
(-0.00591354 0.013796 0)
(-0.000991795 0.00963625 0)
(-0.00208127 -0.00443695 0)
(-0.00731514 -0.00378418 0)
(-0.0109611 -0.00166754 0)
(-0.012795 -0.00021086 0)
(-0.013316 0.000454649 0)
(-0.0131791 0.000623398 0)
(-0.0128128 0.000558412 0)
(-0.0124588 0.000404871 0)
(-0.012232 0.00022654 0)
(-0.0121778 4.38431e-05 0)
(-0.0123071 -0.000133706 0)
(-0.0125985 -0.000292766 0)
(-0.012993 -0.000408251 0)
(-0.0133671 -0.000433388 0)
(-0.0135059 -0.000288325 0)
(-0.0130901 0.000151828 0)
(-0.0117023 0.000984841 0)
(-0.0090153 0.00215416 0)
(-0.00524452 0.00316626 0)
(-0.00123655 0.00265387 0)
)
;

boundaryField
{
    leftWall
    {
        type            fixedValue;
        value           uniform (0 0 0);
    }
    rightWall
    {
        type            fixedValue;
        value           uniform (0 0 0);
    }
    topWall
    {
        type            fixedValue;
        value           uniform (0 0 0);
    }
    bottomWall
    {
        type            fixedValue;
        value           uniform (0 0 0);
    }
    frontAndBackPlanes
    {
        type            empty;
    }
}


// ************************************************************************* //
