/*--------------------------------*- C++ -*----------------------------------*\
| =========                 |                                                 |
| \\      /  F ield         | OpenFOAM: The Open Source CFD Toolbox           |
|  \\    /   O peration     | Version:  2506                                  |
|   \\  /    A nd           | Website:  www.openfoam.com                      |
|    \\/     M anipulation  |                                                 |
\*---------------------------------------------------------------------------*/
FoamFile
{
    version     2.0;
    format      ascii;
    arch        "LSB;label=32;scalar=64";
    class       volVectorField;
    location    "92";
    object      U;
}
// * * * * * * * * * * * * * * * * * * * * * * * * * * * * * * * * * * * * * //

dimensions      [0 1 -1 0 0 0 0];

internalField   nonuniform List<vector> 
200
(
(0.000280489 -0.000874883 0)
(0.00172013 -0.00115442 0)
(0.0033773 -0.000887772 0)
(0.00477759 -0.000527973 0)
(0.00571616 -0.000243133 0)
(0.00628583 -7.73228e-05 0)
(0.00663364 -2.32221e-05 0)
(0.00689816 -5.4832e-05 0)
(0.00718903 -0.000146338 0)
(0.00758594 -0.00028065 0)
(0.00814525 -0.000450933 0)
(0.00890677 -0.000656974 0)
(0.00989401 -0.000895913 0)
(0.0110996 -0.00114504 0)
(0.0124413 -0.00133169 0)
(0.0136609 -0.00127969 0)
(0.0141709 -0.00062337 0)
(0.0130546 0.00119851 0)
(0.00937266 0.00428654 0)
(0.00283198 0.00600406 0)
(0.000413138 -0.003644 0)
(0.00273587 -0.0058707 0)
(0.00537425 -0.00549087 0)
(0.00773231 -0.00417054 0)
(0.00951434 -0.00280484 0)
(0.010752 -0.00179095 0)
(0.0116024 -0.00123029 0)
(0.0122359 -0.00107944 0)
(0.0127929 -0.00124494 0)
(0.0133718 -0.00163329 0)
(0.0140299 -0.00216759 0)
(0.014785 -0.00277737 0)
(0.0156083 -0.00336269 0)
(0.0164014 -0.00372985 0)
(0.0169537 -0.0034979 0)
(0.0168885 -0.00199276 0)
(0.0156014 0.0017706 0)
(0.0124058 0.00853594 0)
(0.00724366 0.0168024 0)
(0.00124133 0.017229 0)
(0.000436393 -0.00676037 0)
(0.0028453 -0.0112277 0)
(0.00549364 -0.0108428 0)
(0.00785048 -0.00857174 0)
(0.00964308 -0.00608429 0)
(0.0109047 -0.00412939 0)
(0.0117784 -0.00291681 0)
(0.0124099 -0.00238882 0)
(0.0129106 -0.00238609 0)
(0.0133515 -0.00273447 0)
(0.0137655 -0.00327405 0)
(0.0141494 -0.00384276 0)
(0.0144569 -0.00421978 0)
(0.0145787 -0.00403373 0)
(0.0143147 -0.00265668 0)
(0.013337 0.000845289 0)
(0.0113082 0.00742323 0)
(0.00806302 0.0171716 0)
(0.00402813 0.026761 0)
(0.000475368 0.0232731 0)
(0.000413844 -0.00982143 0)
(0.00258717 -0.0162518 0)
(0.00481719 -0.0156553 0)
(0.00668527 -0.0123849 0)
(0.00801866 -0.00883314 0)
(0.00890029 -0.00603111 0)
(0.00947608 -0.00423894 0)
(0.00986555 -0.00335062 0)
(0.0101431 -0.003132 0)
(0.0103467 -0.00333877 0)
(0.0104892 -0.00375039 0)
(0.0105637 -0.00414119 0)
(0.0105359 -0.00420147 0)
(0.0103261 -0.0034281 0)
(0.00978928 -0.00103581 0)
(0.00870398 0.00398174 0)
(0.00693201 0.0123804 0)
(0.00448384 0.0236313 0)
(0.00184257 0.0330285 0)
(9.48422e-05 0.026099 0)
(0.000369835 -0.0125148 0)
(0.00209464 -0.0203049 0)
(0.00361921 -0.0191906 0)
(0.0047113 -0.0149063 0)
(0.00535112 -0.0104581 0)
(0.00568379 -0.00703786 0)
(0.00585015 -0.00486749 0)
(0.00593244 -0.00375014 0)
(0.00596354 -0.0033749 0)
(0.00595183 -0.00345173 0)
(0.00589827 -0.00373462 0)
(0.00579922 -0.00396904 0)
(0.00563576 -0.00378795 0)
(0.00535534 -0.00259115 0)
(0.00484988 0.000510565 0)
(0.00401423 0.00649748 0)
(0.00281004 0.0159189 0)
(0.00137514 0.0276691 0)
(0.000125882 0.0361933 0)
(-0.000168586 0.0268447 0)
(0.000294221 -0.0146113 0)
(0.00132037 -0.0229148 0)
(0.00184813 -0.0209656 0)
(0.00192877 -0.015768 0)
(0.00173451 -0.0107276 0)
(0.00145019 -0.00702238 0)
(0.00117619 -0.00474285 0)
(0.000936805 -0.00358036 0)
(0.00072188 -0.00316883 0)
(0.000518151 -0.00320667 0)
(0.000318819 -0.00344918 0)
(0.000117017 -0.00362657 0)
(-0.000107721 -0.00332456 0)
(-0.000392508 -0.00187472 0)
(-0.000787765 0.00164534 0)
(-0.00127152 0.00811285 0)
(-0.00172548 0.0177898 0)
(-0.00189951 0.0291089 0)
(-0.00151592 0.03632 0)
(-0.00036687 0.0258213 0)
(0.000163405 -0.0157078 0)
(8.07081e-05 -0.0234072 0)
(-0.000778279 -0.0203802 0)
(-0.00194197 -0.0145787 0)
(-0.00307094 -0.00944158 0)
(-0.00401013 -0.00589482 0)
(-0.00474358 -0.00382088 0)
(-0.00531683 -0.00282024 0)
(-0.00578133 -0.00251731 0)
(-0.00617348 -0.00262876 0)
(-0.00651664 -0.00291829 0)
(-0.00683058 -0.00310277 0)
(-0.00713318 -0.00275123 0)
(-0.00742052 -0.00121971 0)
(-0.00762486 0.00229399 0)
(-0.00755824 0.00846855 0)
(-0.00695127 0.0173511 0)
(-0.0055364 0.0273084 0)
(-0.00331942 0.0330979 0)
(-0.000613817 0.0229266 0)
(-0.000143401 -0.0150625 0)
(-0.00196306 -0.020717 0)
(-0.00457036 -0.0167227 0)
(-0.00710176 -0.0110355 0)
(-0.00912874 -0.00651442 0)
(-0.0106137 -0.00364527 0)
(-0.0116757 -0.00211648 0)
(-0.0124534 -0.0014993 0)
(-0.0130568 -0.00145116 0)
(-0.013563 -0.00172751 0)
(-0.0140214 -0.00212142 0)
(-0.0144537 -0.00237966 0)
(-0.0148412 -0.00213456 0)
(-0.0150932 -0.000877113 0)
(-0.0149945 0.00198573 0)
(-0.0142182 0.00694646 0)
(-0.012392 0.0139901 0)
(-0.00928229 0.0217771 0)
(-0.00518409 0.0261839 0)
(-0.000883141 0.0180433 0)
(-0.00075315 -0.0115545 0)
(-0.00490052 -0.0139167 0)
(-0.00920957 -0.00978141 0)
(-0.0126315 -0.00538513 0)
(-0.0148861 -0.00239789 0)
(-0.0162397 -0.000791925 0)
(-0.0170433 -0.000144313 0)
(-0.0175678 -7.12184e-05 0)
(-0.0179818 -0.000318863 0)
(-0.0183909 -0.000729583 0)
(-0.0188527 -0.00117925 0)
(-0.01937 -0.00152122 0)
(-0.0198767 -0.0015433 0)
(-0.020207 -0.00095021 0)
(-0.0200558 0.00061919 0)
(-0.0189612 0.00351942 0)
(-0.0164376 0.0078138 0)
(-0.0122116 0.0127457 0)
(-0.0067284 0.0158172 0)
(-0.00114625 0.0112522 0)
(-0.00183838 -0.00393301 0)
(-0.00663189 -0.00362224 0)
(-0.0102548 -0.00184127 0)
(-0.0123351 -0.000514272 0)
(-0.0131956 0.000157668 0)
(-0.013399 0.000393464 0)
(-0.0133383 0.000394238 0)
(-0.0132296 0.000289629 0)
(-0.0131951 0.000141628 0)
(-0.013297 -2.60086e-05 0)
(-0.0135616 -0.000199986 0)
(-0.0139856 -0.000365668 0)
(-0.0145167 -0.000493303 0)
(-0.0150262 -0.00052697 0)
(-0.0152734 -0.000371821 0)
(-0.0148992 0.000121601 0)
(-0.0134178 0.00108517 0)
(-0.0104248 0.00247018 0)
(-0.00612932 0.00370541 0)
(-0.00146796 0.00315543 0)
)
;

boundaryField
{
    leftWall
    {
        type            fixedValue;
        value           uniform (0 0 0);
    }
    rightWall
    {
        type            fixedValue;
        value           uniform (0 0 0);
    }
    topWall
    {
        type            fixedValue;
        value           uniform (0 0 0);
    }
    bottomWall
    {
        type            fixedValue;
        value           uniform (0 0 0);
    }
    frontAndBackPlanes
    {
        type            empty;
    }
}


// ************************************************************************* //
