/*--------------------------------*- C++ -*----------------------------------*\
| =========                 |                                                 |
| \\      /  F ield         | OpenFOAM: The Open Source CFD Toolbox           |
|  \\    /   O peration     | Version:  2506                                  |
|   \\  /    A nd           | Website:  www.openfoam.com                      |
|    \\/     M anipulation  |                                                 |
\*---------------------------------------------------------------------------*/
FoamFile
{
    version     2.0;
    format      ascii;
    arch        "LSB;label=32;scalar=64";
    class       volScalarField;
    location    "42";
    object      p_rgh;
}
// * * * * * * * * * * * * * * * * * * * * * * * * * * * * * * * * * * * * * //

dimensions      [1 -1 -2 0 0 0 0];

internalField   nonuniform List<scalar> 
200
(
100000
100000
100000
100000
100000
100000
100000
100000
100000
100000
100000
100000
99999.9
99999.9
99999.8
99999.7
99999.5
99999.2
99998.9
99998.2
100000
100000
100000
100000
100000
100000
100000
100000
100000
100000
100000
100000
99999.9
99999.9
99999.8
99999.8
99999.6
99999.3
99998.6
99997
100000
100000
100000
100000
100000
100000
100000
99999.9
99999.9
99999.9
99999.9
99999.9
99999.9
99999.9
99999.9
99999.8
99999.7
99999.2
99998
99995.3
100000
100000
100000
99999.9
99999.8
99999.8
99999.7
99999.7
99999.7
99999.7
99999.7
99999.8
99999.8
99999.8
99999.9
99999.8
99999.6
99998.8
99997
99993.4
100000
100000
99999.8
99999.6
99999.5
99999.4
99999.3
99999.3
99999.3
99999.4
99999.4
99999.5
99999.6
99999.7
99999.8
99999.7
99999.4
99998.3
99995.8
99991.3
100000
100000
99999.5
99999.2
99998.9
99998.8
99998.7
99998.7
99998.7
99998.8
99998.9
99999
99999.2
99999.4
99999.5
99999.4
99998.8
99997.3
99994.2
99989.1
100001
99999.9
99999.1
99998.5
99998.1
99997.9
99997.8
99997.8
99997.8
99997.8
99997.9
99998
99998.2
99998.3
99998.4
99998.2
99997.5
99995.7
99992.4
99987.1
100001
99999.7
99998.5
99997.5
99996.9
99996.6
99996.4
99996.2
99996.1
99996
99996
99996
99996
99996.1
99996.1
99995.8
99995.1
99993.4
99990.3
99985.2
100001
99999.4
99997.7
99996.4
99995.5
99994.9
99994.4
99994
99993.7
99993.4
99993.1
99992.9
99992.7
99992.6
99992.5
99992.2
99991.6
99990.3
99987.7
99983.4
100002
99999.3
99997.3
99995.8
99994.7
99993.8
99993.1
99992.4
99991.9
99991.4
99990.9
99990.4
99989.9
99989.5
99989
99988.6
99988
99986.9
99985
99981.9
)
;

boundaryField
{
    leftWall
    {
        type            fixedFluxPressure;
        gradient        nonuniform List<scalar> 10(-0.00819748 0.0891395 0.567608 1.83987 4.41097 8.79086 15.4891 25.417 38.5383 48.8151);
        value           nonuniform List<scalar> 10(100000 100000 100000 100000 100000 100001 100001 100002 100002 100003);
    }
    rightWall
    {
        type            fixedFluxPressure;
        gradient        nonuniform List<scalar> 10(-17.635 -49.6675 -75.7027 -96.4621 -111.569 -121.649 -127.236 -124.453 -108.837 -82.3265);
        value           nonuniform List<scalar> 10(99997.8 99995.8 99993.4 99991 99988.5 99986.1 99983.9 99982.1 99980.6 99979.8);
    }
    topWall
    {
        type            fixedFluxPressure;
        gradient        uniform 0;
        value           nonuniform List<scalar> 
20
(
100000
100000
100000
100000
100000
100000
100000
100000
100000
100000
100000
100000
99999.9
99999.9
99999.8
99999.7
99999.5
99999.2
99998.9
99998.2
)
;
    }
    bottomWall
    {
        type            fixedFluxPressure;
        gradient        uniform 0;
        value           nonuniform List<scalar> 
20
(
100002
99999.3
99997.3
99995.8
99994.7
99993.8
99993.1
99992.4
99991.9
99991.4
99990.9
99990.4
99989.9
99989.5
99989
99988.6
99988
99986.9
99985
99981.9
)
;
    }
    frontAndBackPlanes
    {
        type            empty;
    }
}


// ************************************************************************* //
