/*--------------------------------*- C++ -*----------------------------------*\
| =========                 |                                                 |
| \\      /  F ield         | OpenFOAM: The Open Source CFD Toolbox           |
|  \\    /   O peration     | Version:  2506                                  |
|   \\  /    A nd           | Website:  www.openfoam.com                      |
|    \\/     M anipulation  |                                                 |
\*---------------------------------------------------------------------------*/
FoamFile
{
    version     2.0;
    format      ascii;
    arch        "LSB;label=32;scalar=64";
    class       volScalarField;
    location    "42";
    object      T;
}
// * * * * * * * * * * * * * * * * * * * * * * * * * * * * * * * * * * * * * //

dimensions      [0 0 0 1 0 0 0];

internalField   nonuniform List<scalar> 
200
(
273.15
273.15
273.149
273.149
273.149
273.149
273.149
273.148
273.148
273.148
273.148
273.148
273.148
273.149
273.152
273.16
273.183
273.245
273.41
273.794
273.151
273.152
273.153
273.154
273.155
273.156
273.156
273.156
273.155
273.155
273.155
273.154
273.154
273.153
273.154
273.159
273.179
273.241
273.417
273.816
273.152
273.157
273.161
273.165
273.168
273.17
273.171
273.171
273.17
273.169
273.168
273.167
273.164
273.162
273.161
273.165
273.186
273.255
273.444
273.844
273.155
273.166
273.176
273.185
273.191
273.195
273.196
273.196
273.195
273.193
273.19
273.186
273.181
273.176
273.171
273.174
273.199
273.277
273.478
273.871
273.159
273.179
273.198
273.213
273.224
273.23
273.232
273.231
273.229
273.225
273.22
273.214
273.205
273.194
273.187
273.19
273.22
273.31
273.52
273.899
273.165
273.197
273.227
273.251
273.267
273.275
273.278
273.277
273.274
273.269
273.262
273.253
273.24
273.226
273.216
273.223
273.262
273.365
273.576
273.926
273.172
273.219
273.263
273.298
273.32
273.331
273.335
273.335
273.333
273.331
273.326
273.318
273.308
273.297
273.293
273.305
273.349
273.45
273.643
273.952
273.182
273.247
273.306
273.351
273.38
273.397
273.407
273.415
273.421
273.426
273.429
273.429
273.427
273.425
273.426
273.441
273.481
273.567
273.726
273.982
273.193
273.275
273.348
273.405
273.446
273.475
273.498
273.517
273.533
273.548
273.561
273.573
273.583
273.592
273.602
273.617
273.649
273.713
273.829
274.019
273.198
273.287
273.366
273.43
273.481
273.52
273.553
273.582
273.608
273.632
273.656
273.679
273.701
273.724
273.748
273.772
273.805
273.855
273.935
274.06
)
;

boundaryField
{
    leftWall
    {
        type            fixedValue;
        value           uniform 273.15;
    }
    rightWall
    {
        type            customNeumannDirichletCoupledBoundary;
        refValue        nonuniform List<scalar> 10(274.125 274.126 274.128 274.13 274.132 274.134 274.135 274.137 274.14 274.141);
        refGradient     uniform 0;
        valueFraction   uniform 1;
        source          uniform 0;
        value           nonuniform List<scalar> 10(274.125 274.126 274.128 274.13 274.132 274.134 274.135 274.137 274.14 274.141);
        kappaMethod     fluidThermo;
    }
    topWall
    {
        type            zeroGradient;
    }
    bottomWall
    {
        type            zeroGradient;
    }
    frontAndBackPlanes
    {
        type            empty;
    }
}


// ************************************************************************* //
