/*--------------------------------*- C++ -*----------------------------------*\
| =========                 |                                                 |
| \\      /  F ield         | OpenFOAM: The Open Source CFD Toolbox           |
|  \\    /   O peration     | Version:  2506                                  |
|   \\  /    A nd           | Website:  www.openfoam.com                      |
|    \\/     M anipulation  |                                                 |
\*---------------------------------------------------------------------------*/
FoamFile
{
    version     2.0;
    format      ascii;
    arch        "LSB;label=32;scalar=64";
    class       surfaceScalarField;
    location    "97";
    object      phi;
}
// * * * * * * * * * * * * * * * * * * * * * * * * * * * * * * * * * * * * * //

dimensions      [1 0 -1 0 0 0 0];

oriented        oriented;

internalField   nonuniform List<scalar> 
370
(
0.000236398
-0.00028271
0.000667835
-0.00043136
0.00105513
-0.000387181
0.00133539
-0.000280123
0.00151165
-0.000176103
0.00161428
-0.000102469
0.00167899
-6.45304e-05
0.00173662
-5.74453e-05
0.00181043
-7.36091e-05
0.00191672
-0.000106092
0.00206668
-0.000149752
0.00226734
-0.000200448
0.00252008
-0.000252529
0.00281414
-0.000293831
0.00311236
-0.000297998
0.00332543
-0.000212833
0.00327156
5.4111e-05
0.00273385
0.00053794
0.00149471
0.00123935
0.00149482
0.000374097
-0.000656768
0.00101714
-0.0010743
0.00164688
-0.00101676
0.00214947
-0.000782531
0.00250868
-0.000535119
0.00275231
-0.0003459
0.00292129
-0.000233298
0.003054
-0.000189943
0.0031798
-0.000199193
0.00331767
-0.000243738
0.00347662
-0.000308486
0.00365541
-0.000379009
0.00383913
-0.000436016
0.00399153
-0.000445987
0.0040427
-0.000348923
0.00388002
-4.99069e-05
0.00336335
0.000571032
0.0023438
0.00155773
0.000952751
0.00263061
0.00244768
0.00038595
-0.00104266
0.0010256
-0.00171381
0.0016463
-0.00163726
0.00214318
-0.00127917
0.00250327
-0.000894968
0.00275244
-0.000594818
0.00292589
-0.00040649
0.00305452
-0.000318321
0.00316027
-0.000304686
0.0032556
-0.000338807
0.00334407
-0.000396708
0.00341987
-0.000454546
0.00346461
-0.000480492
0.00344168
-0.000422794
0.00329136
-0.000198334
0.00293325
0.000308483
0.00230705
0.00119751
0.00142122
0.00244382
0.000485719
0.00356633
0.0029335
0.000350081
-0.00139268
0.000897084
-0.00226064
0.0013955
-0.00213543
0.00176957
-0.00165297
0.00202454
-0.00114965
0.00219177
-0.000761755
0.00230247
-0.000516904
0.00237884
-0.000394399
0.00243357
-0.00035913
0.0024723
-0.000377251
0.00249555
-0.000419682
0.0024985
-0.000457202
0.00246777
-0.000449476
0.00237666
-0.000331399
0.00218436
-5.74362e-06
0.00184674
0.000646403
0.00134585
0.00169869
0.000734336
0.00305561
0.000193604
0.00410728
0.00312721
0.000287246
-0.00167986
0.000681719
-0.00265492
0.000989992
-0.00244344
0.00118142
-0.0018441
0.00128565
-0.00125357
0.00133923
-0.000815028
0.00136691
-0.000544278
0.00138043
-0.000407619
0.00138346
-0.000361862
0.00137648
-0.000369976
0.00135902
-0.00040192
0.00132853
-0.000426422
0.00127676
-0.000397408
0.00118606
-0.000240387
0.00102932
0.000151304
0.000790023
0.000886012
0.000476726
0.00201229
0.000161767
0.00337085
-2.13268e-05
0.0042906
0.00310597
0.000192471
-0.00187225
0.000368887
-0.00283114
0.000426021
-0.0025003
0.000394982
-0.00181275
0.000328166
-0.00118644
0.000258824
-0.000745375
0.000198552
-0.000483703
0.000146758
-0.000355526
9.95903e-05
-0.000314398
5.43671e-05
-0.000324457
9.5773e-06
-0.000356835
-3.7677e-05
-0.000378873
-9.41031e-05
-0.000340682
-0.000169381
-0.000164802
-0.000268179
0.000250419
-0.000377765
0.000995919
-0.00045536
0.0020902
-0.000426667
0.00334244
-0.000236772
0.00410092
0.00286928
3.2371e-05
-0.00190454
-0.000101326
-0.00269721
-0.000361458
-0.00223988
-0.000648104
-0.0015258
-0.000899298
-0.000934939
-0.00109764
-0.000546735
-0.00124992
-0.000331124
-0.00136941
-0.00023575
-0.00146709
-0.000216433
-0.00155002
-0.000241237
-0.00162301
-0.000283554
-0.00169013
-0.000311469
-0.00175302
-0.0002775
-0.00180443
-0.000113097
-0.00181603
0.000262328
-0.00173853
0.000918722
-0.00150533
0.00185729
-0.00106338
0.00290076
-0.000457962
0.0034957
0.0024114
-0.000233402
-0.00167104
-0.000799101
-0.00213128
-0.00143482
-0.00160387
-0.00198254
-0.000977769
-0.00239788
-0.000519311
-0.00269537
-0.000248958
-0.00290798
-0.00011823
-0.00306553
-7.79176e-05
-0.00319044
-9.12523e-05
-0.00329803
-0.000133382
-0.00339645
-0.00018487
-0.00348575
-0.000221898
-0.00355288
-0.000210106
-0.00356367
-0.000102038
-0.00345848
0.000157396
-0.00315757
0.000618086
-0.0025838
0.00128377
-0.00171372
0.00203091
-0.000687907
0.00247006
0.00172356
-0.000645281
-0.00102566
-0.0017148
-0.00106153
-0.00265745
-0.000660936
-0.00331983
-0.000315088
-0.00373411
-0.000104749
-0.00397529
-7.50209e-06
-0.00412403
3.07783e-05
-0.00422657
2.48812e-05
-0.00431449
-3.08664e-06
-0.00440986
-3.77742e-05
-0.00451795
-7.65512e-05
-0.00463144
-0.000108189
-0.00472269
-0.000118636
-0.00473666
-8.78599e-05
-0.00459239
1.33416e-05
-0.00417743
0.000203333
-0.00339678
0.00050332
-0.00223138
0.000865683
-0.000878686
0.0011175
0.000844931
-0.00102554
-0.00208683
-0.00274748
-0.00306228
-0.00316675
-0.00317399
-0.00314296
-0.00311785
-0.00312071
-0.00315828
-0.00323463
-0.00334264
-0.0034611
-0.00354879
-0.0035353
-0.00333182
-0.00282836
-0.00196256
-0.000844971
)
;

boundaryField
{
    leftWall
    {
        type            calculated;
        value           nonuniform List<scalar> 10(0 0 0 -1.0842e-19 0 0 0 4.33681e-19 0 0);
    }
    rightWall
    {
        type            calculated;
        value           nonuniform List<scalar> 10(0 0 0 -4.33681e-19 0 0 0 0 0 0);
    }
    topWall
    {
        type            calculated;
        value           uniform 0;
    }
    bottomWall
    {
        type            calculated;
        value           uniform 0;
    }
    frontAndBackPlanes
    {
        type            empty;
    }
}


// ************************************************************************* //
