/*--------------------------------*- C++ -*----------------------------------*\
| =========                 |                                                 |
| \\      /  F ield         | OpenFOAM: The Open Source CFD Toolbox           |
|  \\    /   O peration     | Version:  2506                                  |
|   \\  /    A nd           | Website:  www.openfoam.com                      |
|    \\/     M anipulation  |                                                 |
\*---------------------------------------------------------------------------*/
FoamFile
{
    version     2.0;
    format      ascii;
    arch        "LSB;label=32;scalar=64";
    class       volScalarField;
    location    "14.8";
    object      T;
}
// * * * * * * * * * * * * * * * * * * * * * * * * * * * * * * * * * * * * * //

dimensions      [0 0 0 1 0 0 0];

internalField   nonuniform List<scalar> 
200
(
273.15
273.149
273.148
273.148
273.148
273.147
273.147
273.147
273.147
273.147
273.147
273.147
273.147
273.148
273.15
273.157
273.177
273.236
273.398
273.786
273.149
273.147
273.146
273.145
273.144
273.144
273.144
273.144
273.143
273.143
273.143
273.143
273.144
273.144
273.146
273.152
273.171
273.231
273.404
273.807
273.148
273.145
273.142
273.14
273.139
273.139
273.138
273.138
273.138
273.138
273.138
273.138
273.138
273.139
273.142
273.149
273.172
273.241
273.429
273.834
273.147
273.142
273.138
273.135
273.134
273.133
273.132
273.132
273.132
273.132
273.132
273.132
273.133
273.134
273.137
273.147
273.176
273.257
273.458
273.859
273.146
273.139
273.133
273.13
273.128
273.127
273.126
273.126
273.126
273.126
273.127
273.128
273.129
273.13
273.135
273.148
273.185
273.278
273.49
273.883
273.145
273.136
273.129
273.124
273.122
273.121
273.12
273.12
273.121
273.122
273.123
273.126
273.129
273.132
273.138
273.157
273.203
273.31
273.532
273.909
273.144
273.132
273.124
273.119
273.116
273.115
273.115
273.115
273.117
273.12
273.125
273.133
273.142
273.151
273.164
273.193
273.252
273.368
273.584
273.929
273.142
273.129
273.119
273.113
273.11
273.109
273.109
273.111
273.115
273.124
273.138
273.159
273.184
273.209
273.237
273.278
273.344
273.456
273.648
273.95
273.141
273.126
273.115
273.108
273.105
273.104
273.105
273.108
273.117
273.134
273.165
273.208
273.258
273.311
273.361
273.412
273.478
273.575
273.73
273.976
273.141
273.125
273.113
273.105
273.101
273.099
273.1
273.103
273.112
273.133
273.171
273.228
273.299
273.377
273.454
273.527
273.603
273.695
273.819
274.007
)
;

boundaryField
{
    leftWall
    {
        type            fixedValue;
        value           uniform 273.15;
    }
    rightWall
    {
        type            customNeumannDirichletCoupledBoundary;
        refValue        nonuniform List<scalar> 10(274.124 274.126 274.127 274.129 274.13 274.132 274.134 274.135 274.137 274.138);
        refGradient     uniform 0;
        valueFraction   uniform 1;
        source          uniform 0;
        value           nonuniform List<scalar> 10(274.124 274.126 274.127 274.129 274.13 274.132 274.134 274.135 274.137 274.138);
        kappaMethod     fluidThermo;
    }
    topWall
    {
        type            zeroGradient;
    }
    bottomWall
    {
        type            zeroGradient;
    }
    frontAndBackPlanes
    {
        type            empty;
    }
}


// ************************************************************************* //
