/*--------------------------------*- C++ -*----------------------------------*\
| =========                 |                                                 |
| \\      /  F ield         | OpenFOAM: The Open Source CFD Toolbox           |
|  \\    /   O peration     | Version:  2506                                  |
|   \\  /    A nd           | Website:  www.openfoam.com                      |
|    \\/     M anipulation  |                                                 |
\*---------------------------------------------------------------------------*/
FoamFile
{
    version     2.0;
    format      ascii;
    arch        "LSB;label=32;scalar=64";
    class       volScalarField;
    location    "78.6";
    object      T;
}
// * * * * * * * * * * * * * * * * * * * * * * * * * * * * * * * * * * * * * //

dimensions      [0 0 0 1 0 0 0];

internalField   nonuniform List<scalar> 
200
(
273.156
273.167
273.176
273.182
273.185
273.187
273.189
273.19
273.191
273.192
273.193
273.195
273.197
273.2
273.204
273.212
273.235
273.297
273.458
273.822
273.162
273.184
273.2
273.21
273.216
273.218
273.219
273.22
273.22
273.221
273.223
273.224
273.226
273.227
273.228
273.232
273.251
273.313
273.48
273.85
273.171
273.211
273.239
273.256
273.265
273.268
273.269
273.269
273.268
273.268
273.268
273.268
273.267
273.265
273.263
273.264
273.282
273.347
273.523
273.883
273.182
273.241
273.284
273.309
273.322
273.326
273.326
273.324
273.322
273.32
273.318
273.316
273.312
273.306
273.3
273.299
273.317
273.388
273.57
273.915
273.194
273.274
273.331
273.365
273.38
273.384
273.383
273.38
273.376
273.373
273.37
273.366
273.359
273.349
273.338
273.336
273.358
273.436
273.621
273.944
273.207
273.309
273.381
273.421
273.438
273.442
273.44
273.436
273.433
273.43
273.427
273.422
273.413
273.4
273.389
273.39
273.419
273.503
273.68
273.968
273.22
273.347
273.433
273.478
273.495
273.5
273.499
273.499
273.499
273.499
273.498
273.494
273.487
273.478
273.472
273.478
273.509
273.589
273.745
273.993
273.238
273.389
273.483
273.531
273.553
273.563
273.57
273.576
273.582
273.587
273.591
273.593
273.593
273.591
273.591
273.6
273.629
273.695
273.82
274.02
273.257
273.427
273.528
273.583
273.612
273.631
273.647
273.661
273.674
273.686
273.697
273.707
273.716
273.725
273.732
273.744
273.769
273.818
273.907
274.052
273.271
273.447
273.551
273.609
273.644
273.669
273.689
273.708
273.727
273.745
273.764
273.782
273.801
273.82
273.84
273.861
273.888
273.928
273.989
274.084
)
;

boundaryField
{
    leftWall
    {
        type            fixedValue;
        value           uniform 273.15;
    }
    rightWall
    {
        type            customNeumannDirichletCoupledBoundary;
        refValue        nonuniform List<scalar> 10(274.127 274.129 274.131 274.133 274.135 274.137 274.138 274.14 274.142 274.143);
        refGradient     uniform 0;
        valueFraction   uniform 1;
        source          uniform 0;
        value           nonuniform List<scalar> 10(274.127 274.129 274.131 274.133 274.135 274.137 274.138 274.14 274.142 274.143);
        kappaMethod     fluidThermo;
    }
    topWall
    {
        type            zeroGradient;
    }
    bottomWall
    {
        type            zeroGradient;
    }
    frontAndBackPlanes
    {
        type            empty;
    }
}


// ************************************************************************* //
