/*--------------------------------*- C++ -*----------------------------------*\
| =========                 |                                                 |
| \\      /  F ield         | OpenFOAM: The Open Source CFD Toolbox           |
|  \\    /   O peration     | Version:  2506                                  |
|   \\  /    A nd           | Website:  www.openfoam.com                      |
|    \\/     M anipulation  |                                                 |
\*---------------------------------------------------------------------------*/
FoamFile
{
    version     2.0;
    format      ascii;
    arch        "LSB;label=32;scalar=64";
    class       volScalarField;
    location    "78.4";
    object      T;
}
// * * * * * * * * * * * * * * * * * * * * * * * * * * * * * * * * * * * * * //

dimensions      [0 0 0 1 0 0 0];

internalField   nonuniform List<scalar> 
200
(
273.156
273.167
273.176
273.181
273.185
273.187
273.188
273.189
273.19
273.192
273.193
273.195
273.197
273.199
273.203
273.212
273.234
273.297
273.458
273.822
273.162
273.184
273.2
273.21
273.216
273.218
273.219
273.219
273.22
273.221
273.222
273.224
273.225
273.226
273.227
273.232
273.251
273.312
273.48
273.849
273.171
273.21
273.239
273.256
273.265
273.268
273.269
273.268
273.268
273.267
273.267
273.267
273.267
273.265
273.262
273.264
273.282
273.347
273.522
273.883
273.182
273.241
273.283
273.309
273.321
273.325
273.325
273.323
273.321
273.319
273.318
273.315
273.311
273.306
273.299
273.298
273.317
273.388
273.569
273.915
273.194
273.274
273.331
273.364
273.379
273.383
273.382
273.379
273.376
273.373
273.369
273.365
273.358
273.348
273.338
273.335
273.357
273.436
273.621
273.944
273.206
273.309
273.381
273.42
273.437
273.441
273.439
273.436
273.432
273.43
273.427
273.421
273.412
273.4
273.388
273.389
273.418
273.503
273.68
273.968
273.22
273.346
273.432
273.477
273.494
273.499
273.499
273.498
273.498
273.498
273.497
273.493
273.486
273.477
273.472
273.477
273.509
273.588
273.745
273.992
273.238
273.388
273.483
273.531
273.552
273.562
273.569
273.575
273.581
273.587
273.591
273.593
273.592
273.591
273.591
273.599
273.628
273.694
273.82
274.02
273.257
273.426
273.528
273.582
273.612
273.631
273.646
273.66
273.673
273.685
273.697
273.707
273.716
273.724
273.732
273.744
273.768
273.817
273.907
274.052
273.27
273.446
273.55
273.608
273.643
273.668
273.689
273.708
273.726
273.745
273.763
273.782
273.801
273.82
273.84
273.861
273.887
273.927
273.989
274.084
)
;

boundaryField
{
    leftWall
    {
        type            fixedValue;
        value           uniform 273.15;
    }
    rightWall
    {
        type            customNeumannDirichletCoupledBoundary;
        refValue        nonuniform List<scalar> 10(274.127 274.129 274.131 274.133 274.135 274.136 274.138 274.14 274.142 274.143);
        refGradient     uniform 0;
        valueFraction   uniform 1;
        source          uniform 0;
        value           nonuniform List<scalar> 10(274.127 274.129 274.131 274.133 274.135 274.136 274.138 274.14 274.142 274.143);
        kappaMethod     fluidThermo;
    }
    topWall
    {
        type            zeroGradient;
    }
    bottomWall
    {
        type            zeroGradient;
    }
    frontAndBackPlanes
    {
        type            empty;
    }
}


// ************************************************************************* //
