/*--------------------------------*- C++ -*----------------------------------*\
| =========                 |                                                 |
| \\      /  F ield         | OpenFOAM: The Open Source CFD Toolbox           |
|  \\    /   O peration     | Version:  2506                                  |
|   \\  /    A nd           | Website:  www.openfoam.com                      |
|    \\/     M anipulation  |                                                 |
\*---------------------------------------------------------------------------*/
FoamFile
{
    version     2.0;
    format      ascii;
    arch        "LSB;label=32;scalar=64";
    class       surfaceScalarField;
    location    "35.4";
    object      phi;
}
// * * * * * * * * * * * * * * * * * * * * * * * * * * * * * * * * * * * * * //

dimensions      [1 0 -1 0 0 0 0];

oriented        oriented;

internalField   nonuniform List<scalar> 
370
(
-4.43078e-05
-5.50398e-05
0.000100382
-0.000144682
0.000317808
-0.000217412
0.000583411
-0.000265583
0.000868473
-0.000285038
0.00115146
-0.000282959
0.00142099
-0.000269506
0.00167498
-0.000253955
0.00191841
-0.000243411
0.00216083
-0.000242386
0.00241349
-0.000252643
0.00268631
-0.000272789
0.00298282
-0.000296494
0.00329305
-0.000310203
0.00358029
-0.00028722
0.00375545
-0.00017514
0.00364724
0.00010824
0.00302649
0.000620797
0.00166102
0.00136553
0.00166105
0.000117583
-0.000172613
0.000442707
-0.000469776
0.000906079
-0.00068073
0.00143751
-0.00079694
0.00198293
-0.000830362
0.00250611
-0.000806045
0.00298802
-0.000751312
0.00342325
-0.00068907
0.00381501
-0.00063507
0.00416998
-0.000597251
0.00449295
-0.00057552
0.00478109
-0.000560833
0.00501747
-0.000532778
0.00516239
-0.00045505
0.00514332
-0.00026807
0.00484779
0.000120459
0.004133
0.000823108
0.00285902
0.00189487
0.00116923
0.00305543
0.00283035
0.000203391
-0.00037598
0.000670597
-0.000936901
0.00127788
-0.00128787
0.00192445
-0.00144331
0.00254326
-0.00144894
0.00309857
-0.0013611
0.00357806
-0.00123054
0.00398381
-0.00109457
0.00432432
-0.000975331
0.00460792
-0.00088061
0.00483719
-0.00080456
0.00500353
-0.000726951
0.00508144
-0.000610498
0.00502312
-0.000396553
0.00475848
-3.26985e-06
0.00419993
0.000679151
0.00328787
0.00173531
0.00204511
0.00313781
0.000730944
0.00436977
0.0035614
0.000254943
-0.000630869
0.000797445
-0.00147923
0.00144712
-0.00193725
0.00208015
-0.00207593
0.00262894
-0.00199728
0.00307046
-0.00180213
0.00340963
-0.00156923
0.00366451
-0.001349
0.00385567
-0.00116606
0.00399918
-0.00102371
0.00410171
-0.000906708
0.00415634
-0.000781225
0.00413853
-0.000592362
0.0040041
-0.000261832
0.00369075
0.000310329
0.00314652
0.00122361
0.00234607
0.00253598
0.0013586
0.00412552
0.000429212
0.00529941
0.00399075
0.000277217
-0.000907987
0.000810075
-0.00201177
0.00138288
-0.00250952
0.00186985
-0.00256221
0.00222096
-0.00234763
0.00243912
-0.00201955
0.00255418
-0.00168358
0.00260311
-0.00139728
0.00261844
-0.00118079
0.00262246
-0.00102718
0.00262445
-0.000908181
0.00261862
-0.00077491
0.00258232
-0.00055562
0.00247606
-0.000155186
0.00224821
0.00053852
0.00185982
0.0016123
0.00130941
0.00308669
0.000676007
0.00475923
0.000161578
0.00581413
0.00415248
0.000246829
-0.00115465
0.000647075
-0.00241149
0.000992767
-0.00285437
0.00119153
-0.00275996
0.00123191
-0.00238695
0.00115371
-0.00194037
0.00101105
-0.00154005
0.000852303
-0.00123777
0.000711398
-0.0010392
0.000606272
-0.000921412
0.000540167
-0.000841458
0.000503249
-0.000737391
0.000474162
-0.000525961
0.000422613
-0.000103125
0.000320859
0.000640711
0.000159877
0.00177369
-3.03028e-05
0.00327729
-0.000169401
0.00489874
-0.000152377
0.00579743
0.00400024
0.000126901
-0.0012813
0.00022165
-0.00250547
0.000160768
-0.00279232
-6.4641e-05
-0.0025332
-0.000403806
-0.00204652
-0.000789918
-0.00155317
-0.00116548
-0.00116358
-0.00149401
-0.000908453
-0.00175922
-0.00077325
-0.00195938
-0.000720522
-0.00210114
-0.000698947
-0.00219411
-0.000643638
-0.00224566
-0.00047365
-0.00225637
-9.16809e-05
-0.0022005
0.000585475
-0.00204513
0.00161889
-0.0017348
0.00296748
-0.00121318
0.00437758
-0.000524699
0.0051093
0.00347567
-0.000127776
-0.00115317
-0.000537558
-0.00209464
-0.00115188
-0.0021765
-0.00185628
-0.00182724
-0.00254895
-0.00135247
-0.00316962
-0.000931382
-0.0036953
-0.000636958
-0.00412783
-0.000475078
-0.00448117
-0.000419097
-0.004771
-0.000429853
-0.00500673
-0.000462355
-0.0051844
-0.000465074
-0.00527968
-0.000377481
-0.00524112
-0.000129388
-0.00499694
0.000342069
-0.00446534
0.00108797
-0.00357925
0.00208198
-0.00233507
0.00313388
-0.000927309
0.00370188
0.00254849
-0.00049106
-0.000661631
-0.00149778
-0.00108662
-0.00263952
-0.00103302
-0.00368395
-0.000781058
-0.00453065
-0.000504273
-0.00517315
-0.000287656
-0.00565331
-0.000155791
-0.00602724
-0.000100278
-0.00634496
-0.000100584
-0.00663897
-0.000135078
-0.00691875
-0.000181826
-0.00716611
-0.000216964
-0.00732912
-0.00021374
-0.00731782
-0.000139965
-0.00702003
4.49962e-05
-0.00629406
0.000362654
-0.00504022
0.000828682
-0.00326753
0.00136165
-0.00127376
0.00170842
0.00127486
-0.000661074
-0.00174622
-0.00277728
-0.00355633
-0.00405882
-0.00434499
-0.00449957
-0.00459886
-0.00469864
-0.00483303
-0.00501424
-0.00523065
-0.00544386
-0.00558332
-0.00553782
-0.0051747
-0.00434561
-0.00298362
-0.00127496
)
;

boundaryField
{
    leftWall
    {
        type            calculated;
        value           nonuniform List<scalar> 10(1.05879e-22 0 0 0 -6.77626e-21 0 0 0 0 -1.0842e-19);
    }
    rightWall
    {
        type            calculated;
        value           nonuniform List<scalar> 10(0 0 -4.33681e-19 0 0 0 0 0 0 0);
    }
    topWall
    {
        type            calculated;
        value           uniform 0;
    }
    bottomWall
    {
        type            calculated;
        value           uniform 0;
    }
    frontAndBackPlanes
    {
        type            empty;
    }
}


// ************************************************************************* //
