/*--------------------------------*- C++ -*----------------------------------*\
| =========                 |                                                 |
| \\      /  F ield         | OpenFOAM: The Open Source CFD Toolbox           |
|  \\    /   O peration     | Version:  2506                                  |
|   \\  /    A nd           | Website:  www.openfoam.com                      |
|    \\/     M anipulation  |                                                 |
\*---------------------------------------------------------------------------*/
FoamFile
{
    version     2.0;
    format      ascii;
    arch        "LSB;label=32;scalar=64";
    class       volScalarField;
    location    "69.4";
    object      p_rgh;
}
// * * * * * * * * * * * * * * * * * * * * * * * * * * * * * * * * * * * * * //

dimensions      [1 -1 -2 0 0 0 0];

internalField   nonuniform List<scalar> 
200
(
100000
100000
100000
100000
100000
100000
99999.9
99999.9
99999.9
99999.9
99999.8
99999.8
99999.7
99999.7
99999.6
99999.5
99999.3
99999.1
99998.7
99998.1
100000
100000
100000
99999.9
99999.9
99999.9
99999.9
99999.8
99999.8
99999.8
99999.8
99999.7
99999.7
99999.7
99999.6
99999.6
99999.4
99999.1
99998.4
99996.9
100000
100000
99999.8
99999.7
99999.7
99999.6
99999.6
99999.6
99999.6
99999.6
99999.6
99999.5
99999.5
99999.5
99999.5
99999.5
99999.4
99998.9
99997.7
99995.3
100000
99999.9
99999.6
99999.4
99999.2
99999.2
99999.2
99999.2
99999.2
99999.2
99999.2
99999.2
99999.2
99999.3
99999.3
99999.3
99999.1
99998.5
99996.7
99993.4
100001
99999.8
99999.2
99998.8
99998.6
99998.6
99998.6
99998.6
99998.6
99998.6
99998.7
99998.7
99998.8
99998.9
99999
99999.1
99998.8
99997.8
99995.5
99991.5
100001
99999.6
99998.7
99998.1
99997.9
99997.8
99997.8
99997.8
99997.9
99997.9
99997.9
99998
99998.1
99998.3
99998.5
99998.5
99998
99996.7
99994.1
99989.7
100001
99999.4
99998
99997.3
99996.9
99996.8
99996.8
99996.8
99996.8
99996.8
99996.8
99996.9
99997
99997.1
99997.2
99997.1
99996.6
99995.2
99992.4
99987.9
100002
99999
99997.2
99996.3
99995.8
99995.6
99995.5
99995.3
99995.2
99995.1
99995
99995
99995
99995
99995.1
99994.9
99994.4
99993
99990.4
99986.2
100002
99998.5
99996.4
99995.2
99994.5
99994.1
99993.8
99993.5
99993.2
99992.9
99992.7
99992.5
99992.3
99992.1
99992
99991.8
99991.3
99990.2
99988.1
99984.7
100002
99998.2
99995.8
99994.5
99993.7
99993.1
99992.7
99992.2
99991.8
99991.4
99991
99990.6
99990.2
99989.8
99989.4
99988.9
99988.4
99987.5
99985.9
99983.4
)
;

boundaryField
{
    leftWall
    {
        type            fixedFluxPressure;
        gradient        nonuniform List<scalar> 10(0.210331 1.37796 4.38004 9.7491 17.7129 28.503 42.6957 62.3616 87.1136 109.752);
        value           nonuniform List<scalar> 10(100000 100000 100000 100001 100001 100002 100002 100003 100004 100005);
    }
    rightWall
    {
        type            fixedFluxPressure;
        gradient        nonuniform List<scalar> 10(-16.71 -46.0098 -68.2687 -84.6775 -95.6775 -103.465 -106.407 -101.693 -86.4464 -64.2294);
        value           nonuniform List<scalar> 10(99997.7 99995.8 99993.6 99991.3 99989.1 99987.1 99985.2 99983.7 99982.5 99981.8);
    }
    topWall
    {
        type            fixedFluxPressure;
        gradient        uniform 0;
        value           nonuniform List<scalar> 
20
(
100000
100000
100000
100000
100000
100000
99999.9
99999.9
99999.9
99999.9
99999.8
99999.8
99999.7
99999.7
99999.6
99999.5
99999.3
99999.1
99998.7
99998.1
)
;
    }
    bottomWall
    {
        type            fixedFluxPressure;
        gradient        uniform 0;
        value           nonuniform List<scalar> 
20
(
100002
99998.2
99995.8
99994.5
99993.7
99993.1
99992.7
99992.2
99991.8
99991.4
99991
99990.6
99990.2
99989.8
99989.4
99988.9
99988.4
99987.5
99985.9
99983.4
)
;
    }
    frontAndBackPlanes
    {
        type            empty;
    }
}


// ************************************************************************* //
