/*--------------------------------*- C++ -*----------------------------------*\
| =========                 |                                                 |
| \\      /  F ield         | OpenFOAM: The Open Source CFD Toolbox           |
|  \\    /   O peration     | Version:  2506                                  |
|   \\  /    A nd           | Website:  www.openfoam.com                      |
|    \\/     M anipulation  |                                                 |
\*---------------------------------------------------------------------------*/
FoamFile
{
    version     2.0;
    format      ascii;
    arch        "LSB;label=32;scalar=64";
    class       volScalarField;
    location    "82";
    object      T;
}
// * * * * * * * * * * * * * * * * * * * * * * * * * * * * * * * * * * * * * //

dimensions      [0 0 0 1 0 0 0];

internalField   nonuniform List<scalar> 
200
(
273.157
273.17
273.179
273.186
273.19
273.192
273.194
273.195
273.196
273.198
273.199
273.201
273.203
273.206
273.21
273.219
273.242
273.304
273.464
273.825
273.163
273.188
273.205
273.216
273.222
273.225
273.226
273.226
273.227
273.228
273.23
273.231
273.233
273.234
273.235
273.24
273.259
273.32
273.487
273.853
273.173
273.215
273.246
273.264
273.273
273.277
273.278
273.277
273.277
273.276
273.276
273.277
273.276
273.274
273.272
273.273
273.291
273.356
273.53
273.887
273.184
273.247
273.292
273.319
273.332
273.336
273.336
273.334
273.332
273.33
273.328
273.326
273.322
273.316
273.31
273.309
273.327
273.397
273.577
273.918
273.197
273.281
273.341
273.375
273.391
273.395
273.394
273.39
273.387
273.384
273.381
273.376
273.369
273.36
273.349
273.347
273.369
273.446
273.629
273.947
273.209
273.316
273.391
273.432
273.449
273.453
273.451
273.447
273.444
273.441
273.438
273.433
273.424
273.411
273.401
273.401
273.43
273.513
273.688
273.971
273.223
273.355
273.444
273.489
273.506
273.511
273.51
273.51
273.51
273.51
273.508
273.505
273.498
273.489
273.483
273.489
273.52
273.598
273.752
273.995
273.242
273.397
273.494
273.542
273.564
273.574
273.58
273.586
273.592
273.597
273.601
273.603
273.603
273.601
273.601
273.61
273.638
273.703
273.826
274.023
273.261
273.435
273.539
273.594
273.623
273.642
273.656
273.67
273.683
273.695
273.706
273.716
273.724
273.732
273.74
273.752
273.776
273.824
273.912
274.055
273.275
273.456
273.562
273.62
273.654
273.679
273.699
273.717
273.735
273.753
273.771
273.789
273.808
273.826
273.846
273.866
273.893
273.932
273.993
274.086
)
;

boundaryField
{
    leftWall
    {
        type            fixedValue;
        value           uniform 273.15;
    }
    rightWall
    {
        type            customNeumannDirichletCoupledBoundary;
        refValue        nonuniform List<scalar> 10(274.128 274.129 274.131 274.133 274.135 274.137 274.139 274.14 274.142 274.143);
        refGradient     uniform 0;
        valueFraction   uniform 1;
        source          uniform 0;
        value           nonuniform List<scalar> 10(274.128 274.129 274.131 274.133 274.135 274.137 274.139 274.14 274.142 274.143);
        kappaMethod     fluidThermo;
    }
    topWall
    {
        type            zeroGradient;
    }
    bottomWall
    {
        type            zeroGradient;
    }
    frontAndBackPlanes
    {
        type            empty;
    }
}


// ************************************************************************* //
