/*--------------------------------*- C++ -*----------------------------------*\
| =========                 |                                                 |
| \\      /  F ield         | OpenFOAM: The Open Source CFD Toolbox           |
|  \\    /   O peration     | Version:  2506                                  |
|   \\  /    A nd           | Website:  www.openfoam.com                      |
|    \\/     M anipulation  |                                                 |
\*---------------------------------------------------------------------------*/
FoamFile
{
    version     2.0;
    format      ascii;
    arch        "LSB;label=32;scalar=64";
    class       volScalarField;
    location    "81.6";
    object      p_rgh;
}
// * * * * * * * * * * * * * * * * * * * * * * * * * * * * * * * * * * * * * //

dimensions      [1 -1 -2 0 0 0 0];

internalField   nonuniform List<scalar> 
200
(
100000
100000
100000
100000
99999.9
99999.9
99999.9
99999.8
99999.8
99999.8
99999.7
99999.7
99999.7
99999.6
99999.5
99999.4
99999.2
99999
99998.6
99998
100000
100000
99999.9
99999.9
99999.8
99999.8
99999.8
99999.7
99999.7
99999.7
99999.7
99999.6
99999.6
99999.6
99999.5
99999.5
99999.3
99999
99998.3
99996.9
100000
100000
99999.8
99999.6
99999.5
99999.5
99999.5
99999.5
99999.5
99999.4
99999.4
99999.4
99999.4
99999.4
99999.4
99999.4
99999.2
99998.8
99997.6
99995.3
100000
99999.9
99999.5
99999.2
99999.1
99999
99999
99999
99999
99999
99999
99999
99999.1
99999.1
99999.2
99999.2
99999
99998.3
99996.7
99993.5
100001
99999.8
99999
99998.6
99998.4
99998.3
99998.3
99998.4
99998.4
99998.4
99998.5
99998.5
99998.6
99998.7
99998.8
99998.8
99998.6
99997.6
99995.5
99991.7
100001
99999.6
99998.5
99997.9
99997.6
99997.5
99997.5
99997.6
99997.6
99997.7
99997.7
99997.8
99997.9
99998.1
99998.2
99998.2
99997.8
99996.6
99994
99989.9
100002
99999.3
99997.8
99997
99996.7
99996.6
99996.6
99996.6
99996.6
99996.6
99996.6
99996.6
99996.8
99996.9
99997
99996.9
99996.4
99995.1
99992.4
99988.2
100002
99998.9
99997
99996
99995.6
99995.4
99995.2
99995.1
99995
99994.9
99994.9
99994.8
99994.8
99994.9
99994.9
99994.8
99994.2
99993
99990.5
99986.6
100002
99998.4
99996.1
99994.9
99994.3
99993.9
99993.6
99993.3
99993.1
99992.8
99992.6
99992.4
99992.3
99992.1
99992
99991.8
99991.4
99990.3
99988.4
99985.1
100003
99998.1
99995.6
99994.2
99993.5
99993
99992.5
99992.2
99991.8
99991.4
99991
99990.7
99990.3
99989.9
99989.5
99989.1
99988.6
99987.8
99986.3
99984
)
;

boundaryField
{
    leftWall
    {
        type            fixedFluxPressure;
        gradient        nonuniform List<scalar> 10(0.365274 2.10645 6.11592 12.7789 22.1967 34.5883 50.6554 72.9078 100.486 125.928);
        value           nonuniform List<scalar> 10(100000 100000 100000 100001 100001 100002 100003 100004 100005 100006);
    }
    rightWall
    {
        type            fixedFluxPressure;
        gradient        nonuniform List<scalar> 10(-16.1388 -44.2185 -65.1895 -80.3086 -90.1907 -97.2403 -99.4867 -94.4337 -79.6321 -58.8916);
        value           nonuniform List<scalar> 10(99997.6 99995.8 99993.7 99991.5 99989.4 99987.5 99985.7 99984.2 99983.2 99982.5);
    }
    topWall
    {
        type            fixedFluxPressure;
        gradient        uniform 0;
        value           nonuniform List<scalar> 
20
(
100000
100000
100000
100000
99999.9
99999.9
99999.9
99999.8
99999.8
99999.8
99999.7
99999.7
99999.7
99999.6
99999.5
99999.4
99999.2
99999
99998.6
99998
)
;
    }
    bottomWall
    {
        type            fixedFluxPressure;
        gradient        uniform 0;
        value           nonuniform List<scalar> 
20
(
100003
99998.1
99995.6
99994.2
99993.5
99993
99992.5
99992.2
99991.8
99991.4
99991
99990.7
99990.3
99989.9
99989.5
99989.1
99988.6
99987.8
99986.3
99984
)
;
    }
    frontAndBackPlanes
    {
        type            empty;
    }
}


// ************************************************************************* //
