/*--------------------------------*- C++ -*----------------------------------*\
| =========                 |                                                 |
| \\      /  F ield         | OpenFOAM: The Open Source CFD Toolbox           |
|  \\    /   O peration     | Version:  2506                                  |
|   \\  /    A nd           | Website:  www.openfoam.com                      |
|    \\/     M anipulation  |                                                 |
\*---------------------------------------------------------------------------*/
FoamFile
{
    version     2.0;
    format      ascii;
    arch        "LSB;label=32;scalar=64";
    class       volScalarField;
    location    "12.8";
    object      p_rgh;
}
// * * * * * * * * * * * * * * * * * * * * * * * * * * * * * * * * * * * * * //

dimensions      [1 -1 -2 0 0 0 0];

internalField   nonuniform List<scalar> 
200
(
100000
100000
100000
100000
100000
100000
100000
100000
100000
100000
100000
100000
99999.9
99999.8
99999.7
99999.6
99999.4
99999.2
99998.8
99998.1
100000
100000
100000
100000
100000
100000
100000
100000
100000
100000
100000
100000
99999.9
99999.9
99999.8
99999.7
99999.6
99999.3
99998.5
99997
100000
100000
100000
100000
100000
100000
100000
100000
100000
100000
100000
100000
100000
99999.9
99999.9
99999.8
99999.6
99999.1
99997.9
99995.2
100000
100000
100000
100000
100000
100000
100000
100000
100000
100000
100000
100000
100000
100000
99999.9
99999.8
99999.5
99998.7
99996.9
99993.2
100000
100000
100000
100000
100000
100000
100000
100000
100000
100000
100000
100000
100000
100000
100000
99999.8
99999.3
99998.2
99995.7
99991
100000
100000
100000
100000
100000
100000
100000
100000
100000
100000
100000
100000
100000
100000
100000
99999.7
99999.1
99997.5
99994.2
99988.7
100000
100000
100000
100001
100001
100001
100001
100001
100001
100001
100001
100000
100000
100000
99999.9
99999.4
99998.4
99996.4
99992.6
99986.5
100000
100000
100001
100001
100001
100001
100001
100001
100001
100001
100001
100000
100000
99999.6
99999
99998.2
99996.9
99994.7
99990.8
99984.5
100000
100000
100001
100001
100001
100001
100001
100001
100001
100001
100001
100000
99999.4
99998.4
99997.2
99996
99994.5
99992.2
99988.6
99982.6
100000
100000
100001
100001
100001
100001
100001
100001
100001
100001
100001
100000
99999.1
99997.5
99995.8
99993.9
99992
99989.7
99986.4
99981.1
)
;

boundaryField
{
    leftWall
    {
        type            fixedFluxPressure;
        gradient        nonuniform List<scalar> 10(-0.0187572 -0.164504 -0.55219 -1.19344 -2.09902 -3.29944 -4.80151 -6.55292 -8.34274 -9.90043);
        value           nonuniform List<scalar> 10(100000 100000 100000 100000 100000 100000 100000 100000 99999.9 99999.8);
    }
    rightWall
    {
        type            fixedFluxPressure;
        gradient        nonuniform List<scalar> 10(-18.1413 -50.963 -77.7706 -99.9785 -118.474 -132.642 -146.187 -156.434 -158.665 -151.256);
        value           nonuniform List<scalar> 10(99997.7 99995.7 99993.2 99990.7 99988 99985.4 99982.9 99980.6 99978.7 99977.4);
    }
    topWall
    {
        type            fixedFluxPressure;
        gradient        uniform 0;
        value           nonuniform List<scalar> 
20
(
100000
100000
100000
100000
100000
100000
100000
100000
100000
100000
100000
100000
99999.9
99999.8
99999.7
99999.6
99999.4
99999.2
99998.8
99998.1
)
;
    }
    bottomWall
    {
        type            fixedFluxPressure;
        gradient        uniform 0;
        value           nonuniform List<scalar> 
20
(
100000
100000
100001
100001
100001
100001
100001
100001
100001
100001
100001
100000
99999.1
99997.5
99995.8
99993.9
99992
99989.7
99986.4
99981.1
)
;
    }
    frontAndBackPlanes
    {
        type            empty;
    }
}


// ************************************************************************* //
