/*--------------------------------*- C++ -*----------------------------------*\
| =========                 |                                                 |
| \\      /  F ield         | OpenFOAM: The Open Source CFD Toolbox           |
|  \\    /   O peration     | Version:  2506                                  |
|   \\  /    A nd           | Website:  www.openfoam.com                      |
|    \\/     M anipulation  |                                                 |
\*---------------------------------------------------------------------------*/
FoamFile
{
    version     2.0;
    format      ascii;
    arch        "LSB;label=32;scalar=64";
    class       volScalarField;
    location    "23";
    object      p_rgh;
}
// * * * * * * * * * * * * * * * * * * * * * * * * * * * * * * * * * * * * * //

dimensions      [1 -1 -2 0 0 0 0];

internalField   nonuniform List<scalar> 
200
(
100000
100000
100000
100000
100000
100000
100000
100000
100000
100000
100000
99999.9
99999.9
99999.8
99999.7
99999.6
99999.4
99999.2
99998.8
99998.2
100000
100000
100000
100000
100000
100000
100000
100000
100000
100000
100000
99999.9
99999.9
99999.8
99999.8
99999.7
99999.6
99999.3
99998.6
99997
100000
100000
100000
100000
100000
100000
100000
100000
100000
100000
100000
100000
99999.9
99999.9
99999.8
99999.8
99999.6
99999.2
99998
99995.3
100000
100000
100000
100000
100000
100000
100000
100000
100000
100000
100000
100000
99999.9
99999.9
99999.9
99999.8
99999.5
99998.8
99997
99993.3
100000
100000
100000
100000
100000
100000
100000
100000
100000
100000
99999.9
99999.9
99999.9
99999.9
99999.8
99999.7
99999.3
99998.3
99995.8
99991.1
100000
100000
100000
100000
100000
100000
100000
100000
99999.9
99999.7
99999.6
99999.6
99999.6
99999.7
99999.7
99999.5
99998.9
99997.4
99994.2
99988.7
100000
100000
100001
100001
100001
100000
100000
99999.7
99999.3
99999
99998.9
99998.9
99999
99999
99998.9
99998.6
99997.8
99995.9
99992.3
99986.5
100000
100001
100001
100001
100001
100000
99999.6
99998.8
99998.2
99997.7
99997.4
99997.3
99997.2
99997.2
99997
99996.5
99995.6
99993.6
99990.1
99984.4
100001
100001
100001
100001
100001
99999.8
99998.8
99997.6
99996.5
99995.5
99994.8
99994.4
99994
99993.8
99993.5
99993
99992.1
99990.5
99987.4
99982.5
100001
100001
100001
100001
100001
100000
99998.7
99997.3
99995.7
99994.3
99993
99992
99991.1
99990.5
99989.8
99989.2
99988.3
99986.9
99984.6
99980.9
)
;

boundaryField
{
    leftWall
    {
        type            fixedFluxPressure;
        gradient        nonuniform List<scalar> 10(-0.0256542 -0.12541 -0.345302 -0.702259 -1.22916 -1.98123 -3.04586 -4.56734 -6.29271 -7.58012);
        value           nonuniform List<scalar> 10(100000 100000 100000 100000 100000 100000 100000 100000 100000 100000);
    }
    rightWall
    {
        type            fixedFluxPressure;
        gradient        nonuniform List<scalar> 10(-17.881 -51.0915 -79.1913 -102.581 -120.417 -131.231 -138.617 -138.369 -125.551 -100.537);
        value           nonuniform List<scalar> 10(99997.7 99995.7 99993.3 99990.7 99988 99985.4 99983 99980.9 99979.3 99978.3);
    }
    topWall
    {
        type            fixedFluxPressure;
        gradient        uniform 0;
        value           nonuniform List<scalar> 
20
(
100000
100000
100000
100000
100000
100000
100000
100000
100000
100000
100000
99999.9
99999.9
99999.8
99999.7
99999.6
99999.4
99999.2
99998.8
99998.2
)
;
    }
    bottomWall
    {
        type            fixedFluxPressure;
        gradient        uniform 0;
        value           nonuniform List<scalar> 
20
(
100001
100001
100001
100001
100001
100000
99998.7
99997.3
99995.7
99994.3
99993
99992
99991.1
99990.5
99989.8
99989.2
99988.3
99986.9
99984.6
99980.9
)
;
    }
    frontAndBackPlanes
    {
        type            empty;
    }
}


// ************************************************************************* //
