/*--------------------------------*- C++ -*----------------------------------*\
| =========                 |                                                 |
| \\      /  F ield         | OpenFOAM: The Open Source CFD Toolbox           |
|  \\    /   O peration     | Version:  2506                                  |
|   \\  /    A nd           | Website:  www.openfoam.com                      |
|    \\/     M anipulation  |                                                 |
\*---------------------------------------------------------------------------*/
FoamFile
{
    version     2.0;
    format      ascii;
    arch        "LSB;label=32;scalar=64";
    class       volScalarField;
    location    "88";
    object      T;
}
// * * * * * * * * * * * * * * * * * * * * * * * * * * * * * * * * * * * * * //

dimensions      [0 0 0 1 0 0 0];

internalField   nonuniform List<scalar> 
200
(
273.158
273.174
273.185
273.193
273.198
273.201
273.203
273.205
273.206
273.208
273.21
273.212
273.214
273.217
273.222
273.23
273.253
273.316
273.475
273.831
273.165
273.194
273.214
273.226
273.233
273.236
273.237
273.238
273.239
273.24
273.242
273.244
273.245
273.247
273.248
273.253
273.272
273.333
273.498
273.859
273.176
273.223
273.257
273.277
273.287
273.291
273.292
273.292
273.291
273.291
273.291
273.291
273.291
273.289
273.287
273.289
273.306
273.37
273.542
273.892
273.188
273.257
273.306
273.334
273.348
273.353
273.353
273.351
273.348
273.346
273.344
273.342
273.339
273.333
273.327
273.326
273.344
273.413
273.59
273.924
273.201
273.292
273.356
273.393
273.409
273.413
273.412
273.408
273.404
273.401
273.398
273.394
273.387
273.377
273.368
273.365
273.386
273.463
273.642
273.953
273.214
273.328
273.408
273.451
273.468
273.471
273.469
273.465
273.461
273.459
273.456
273.451
273.442
273.43
273.419
273.42
273.448
273.53
273.7
273.976
273.228
273.368
273.461
273.507
273.525
273.529
273.528
273.527
273.527
273.527
273.526
273.522
273.515
273.507
273.502
273.507
273.538
273.614
273.764
274
273.247
273.411
273.511
273.561
273.582
273.591
273.597
273.603
273.608
273.613
273.617
273.619
273.619
273.617
273.617
273.626
273.654
273.717
273.837
274.027
273.268
273.45
273.557
273.611
273.64
273.658
273.672
273.685
273.697
273.709
273.719
273.729
273.738
273.745
273.753
273.765
273.788
273.835
273.92
274.058
273.282
273.471
273.579
273.637
273.671
273.695
273.714
273.731
273.748
273.766
273.783
273.8
273.818
273.836
273.855
273.875
273.901
273.939
273.998
274.088
)
;

boundaryField
{
    leftWall
    {
        type            fixedValue;
        value           uniform 273.15;
    }
    rightWall
    {
        type            customNeumannDirichletCoupledBoundary;
        refValue        nonuniform List<scalar> 10(274.128 274.129 274.131 274.133 274.135 274.137 274.139 274.141 274.142 274.144);
        refGradient     uniform 0;
        valueFraction   uniform 1;
        source          uniform 0;
        value           nonuniform List<scalar> 10(274.128 274.129 274.131 274.133 274.135 274.137 274.139 274.141 274.142 274.144);
        kappaMethod     fluidThermo;
    }
    topWall
    {
        type            zeroGradient;
    }
    bottomWall
    {
        type            zeroGradient;
    }
    frontAndBackPlanes
    {
        type            empty;
    }
}


// ************************************************************************* //
