/*--------------------------------*- C++ -*----------------------------------*\
| =========                 |                                                 |
| \\      /  F ield         | OpenFOAM: The Open Source CFD Toolbox           |
|  \\    /   O peration     | Version:  2506                                  |
|   \\  /    A nd           | Website:  www.openfoam.com                      |
|    \\/     M anipulation  |                                                 |
\*---------------------------------------------------------------------------*/
FoamFile
{
    version     2.0;
    format      ascii;
    arch        "LSB;label=32;scalar=64";
    class       volVectorField;
    location    "88";
    object      U;
}
// * * * * * * * * * * * * * * * * * * * * * * * * * * * * * * * * * * * * * //

dimensions      [0 1 -1 0 0 0 0];

internalField   nonuniform List<vector> 
200
(
(0.000247107 -0.000818786 0)
(0.00159994 -0.00108948 0)
(0.00318644 -0.000846866 0)
(0.0045447 -0.000514922 0)
(0.00547142 -0.000249894 0)
(0.00605201 -9.45922e-05 0)
(0.00642355 -4.40852e-05 0)
(0.00671702 -7.5286e-05 0)
(0.00703759 -0.000164801 0)
(0.00746299 -0.000297173 0)
(0.00804941 -0.000466437 0)
(0.00883741 -0.000672643 0)
(0.0098515 -0.000912739 0)
(0.0110849 -0.00116344 0)
(0.0124549 -0.00135131 0)
(0.0137021 -0.00129946 0)
(0.014234 -0.000640823 0)
(0.0131286 0.001192 0)
(0.00943746 0.00430515 0)
(0.00285444 0.00604972 0)
(0.000393259 -0.00344673 0)
(0.00262469 -0.00560287 0)
(0.00518113 -0.00529329 0)
(0.00748494 -0.00407639 0)
(0.00924621 -0.00279895 0)
(0.0104903 -0.00184419 0)
(0.0113646 -0.00131544 0)
(0.0120312 -0.00117698 0)
(0.012625 -0.00134377 0)
(0.0132412 -0.00172917 0)
(0.0139362 -0.0022607 0)
(0.0147277 -0.00286982 0)
(0.015587 -0.00345625 0)
(0.0164152 -0.00382412 0)
(0.0170005 -0.00358902 0)
(0.0169626 -0.00207262 0)
(0.0156935 0.00171738 0)
(0.0124964 0.00853708 0)
(0.00730688 0.0168863 0)
(0.0012546 0.0173624 0)
(0.00042408 -0.00645971 0)
(0.00277684 -0.0108121 0)
(0.00537922 -0.0105311 0)
(0.00770974 -0.00841834 0)
(0.00949741 -0.00606903 0)
(0.0107703 -0.0042095 0)
(0.0116649 -0.00305126 0)
(0.012322 -0.00254737 0)
(0.0128499 -0.00255073 0)
(0.013318 -0.00289728 0)
(0.0137588 -0.00343372 0)
(0.014169 -0.00400094 0)
(0.0145024 -0.00437758 0)
(0.0146492 -0.00418854 0)
(0.0144075 -0.00279931 0)
(0.0134465 0.000732811 0)
(0.0114194 0.00737336 0)
(0.00815684 0.0172206 0)
(0.00408514 0.0269304 0)
(0.000485192 0.023477 0)
(0.000407603 -0.00946548 0)
(0.00256086 -0.0157717 0)
(0.0047856 -0.0153096 0)
(0.00666174 -0.0122316 0)
(0.008012 -0.00884238 0)
(0.00891363 -0.00614884 0)
(0.00950859 -0.00441586 0)
(0.00991474 -0.0035519 0)
(0.0102065 -0.00333781 0)
(0.0104223 -0.00354097 0)
(0.010576 -0.0039481 0)
(0.0106612 -0.00433648 0)
(0.0106438 -0.00439539 0)
(0.0104442 -0.00361639 0)
(0.009916 -0.00120375 0)
(0.00883301 0.00386542 0)
(0.00705071 0.0123585 0)
(0.00457555 0.0237457 0)
(0.00189283 0.0332873 0)
(0.000102096 0.0263629 0)
(0.000368883 -0.0121462 0)
(0.00210423 -0.0198366 0)
(0.00365724 -0.0188844 0)
(0.00478414 -0.0148057 0)
(0.00545545 -0.0105187 0)
(0.00581121 -0.00719716 0)
(0.0059914 -0.00507388 0)
(0.00608002 -0.00397059 0)
(0.00611252 -0.00359287 0)
(0.00609958 -0.00366212 0)
(0.00604369 -0.00393867 0)
(0.005942 -0.00417007 0)
(0.0057761 -0.00398767 0)
(0.00549345 -0.00278472 0)
(0.00498634 0.000342722 0)
(0.00414124 0.0063991 0)
(0.00291919 0.0159413 0)
(0.00145304 0.0278561 0)
(0.00015883 0.0365369 0)
(-0.00016912 0.0271596 0)
(0.000297064 -0.0142632 0)
(0.00135627 -0.0225162 0)
(0.00193442 -0.0207483 0)
(0.0020625 -0.0157483 0)
(0.00190141 -0.0108463 0)
(0.00163403 -0.00721413 0)
(0.00136397 -0.00496059 0)
(0.0011202 -0.00379795 0)
(0.000896435 -0.00337598 0)
(0.000681985 -0.00340274 0)
(0.00047145 -0.00363807 0)
(0.000258379 -0.00381303 0)
(2.33887e-05 -0.0035108 0)
(-0.000272408 -0.00205384 0)
(-0.000682088 0.00149927 0)
(-0.00118432 0.00804947 0)
(-0.00166031 0.0178659 0)
(-0.00185999 0.0293651 0)
(-0.00150251 0.0367284 0)
(-0.000367625 0.0261667 0)
(0.000167172 -0.0154052 0)
(0.000130748 -0.023111 0)
(-0.000669938 -0.0202726 0)
(-0.0017907 -0.0146393 0)
(-0.00289718 -0.00960129 0)
(-0.00383203 -0.00609516 0)
(-0.00457323 -0.00402633 0)
(-0.00516079 -0.00301435 0)
(-0.00564254 -0.00269621 0)
(-0.0060528 -0.00279547 0)
(-0.00641389 -0.00307838 0)
(-0.00674542 -0.00326077 0)
(-0.00706576 -0.00290659 0)
(-0.00737249 -0.00136241 0)
(-0.00759928 0.00219195 0)
(-0.0075546 0.00845218 0)
(-0.00696467 0.0174716 0)
(-0.00555814 0.0275995 0)
(-0.00333916 0.0335235 0)
(-0.000619186 0.0232653 0)
(-0.000134792 -0.0148188 0)
(-0.00190351 -0.0205284 0)
(-0.00446408 -0.0167064 0)
(-0.00696983 -0.0111453 0)
(-0.00899392 -0.00668323 0)
(-0.0104923 -0.00382691 0)
(-0.0115762 -0.00228808 0)
(-0.0123793 -0.00165207 0)
(-0.0130094 -0.00158575 0)
(-0.013542 -0.00184978 0)
(-0.0140258 -0.00223762 0)
(-0.014483 -0.00249357 0)
(-0.0148954 -0.0022442 0)
(-0.0151724 -0.000971131 0)
(-0.0150969 0.00193103 0)
(-0.0143351 0.00696502 0)
(-0.0125088 0.0141216 0)
(-0.00937966 0.0220473 0)
(-0.00524442 0.0265596 0)
(-0.000895066 0.0183341 0)
(-0.000738632 -0.0113836 0)
(-0.00482871 -0.0138267 0)
(-0.00910835 -0.00982269 0)
(-0.0125337 -0.00550178 0)
(-0.0148159 -0.00253617 0)
(-0.0162088 -0.000921419 0)
(-0.0170517 -0.000253043 0)
(-0.0176102 -0.000159793 0)
(-0.0180566 -0.000392461 0)
(-0.0184964 -0.000793901 0)
(-0.0189865 -0.00123962 0)
(-0.0195311 -0.00158074 0)
(-0.0200644 -0.00160085 0)
(-0.0204192 -0.000998767 0)
(-0.0202867 0.000593706 0)
(-0.0191963 0.00353809 0)
(-0.0166546 0.00790325 0)
(-0.0123825 0.0129251 0)
(-0.00682887 0.0160676 0)
(-0.00116509 0.0114492 0)
(-0.00180832 -0.00387075 0)
(-0.00654743 -0.00360222 0)
(-0.0101683 -0.00186375 0)
(-0.012281 -0.0005534 0)
(-0.0131856 0.000118926 0)
(-0.01343 0.000362849 0)
(-0.0134058 0.00037445 0)
(-0.0133293 0.000276639 0)
(-0.0133186 0.000131599 0)
(-0.0134386 -3.4335e-05 0)
(-0.0137198 -0.000208069 0)
(-0.0141607 -0.000374893 0)
(-0.014709 -0.000504284 0)
(-0.0152354 -0.000539094 0)
(-0.0154955 -0.000382552 0)
(-0.0151252 0.000117946 0)
(-0.0136307 0.00109813 0)
(-0.0105983 0.00250977 0)
(-0.00623734 0.0037718 0)
(-0.00149602 0.00321642 0)
)
;

boundaryField
{
    leftWall
    {
        type            fixedValue;
        value           uniform (0 0 0);
    }
    rightWall
    {
        type            fixedValue;
        value           uniform (0 0 0);
    }
    topWall
    {
        type            fixedValue;
        value           uniform (0 0 0);
    }
    bottomWall
    {
        type            fixedValue;
        value           uniform (0 0 0);
    }
    frontAndBackPlanes
    {
        type            empty;
    }
}


// ************************************************************************* //
