/*--------------------------------*- C++ -*----------------------------------*\
| =========                 |                                                 |
| \\      /  F ield         | OpenFOAM: The Open Source CFD Toolbox           |
|  \\    /   O peration     | Version:  2506                                  |
|   \\  /    A nd           | Website:  www.openfoam.com                      |
|    \\/     M anipulation  |                                                 |
\*---------------------------------------------------------------------------*/
FoamFile
{
    version     2.0;
    format      ascii;
    arch        "LSB;label=32;scalar=64";
    class       volScalarField;
    location    "68.4";
    object      p;
}
// * * * * * * * * * * * * * * * * * * * * * * * * * * * * * * * * * * * * * //

dimensions      [1 -1 -2 0 0 0 0];

internalField   nonuniform List<scalar> 
200
(
100000
100000
100000
100000
100000
99999.9
99999.9
99999.9
99999.9
99999.8
99999.8
99999.8
99999.7
99999.7
99999.6
99999.5
99999.4
99999.2
99999
99998.9
99733.4
99733.4
99733.4
99733.4
99733.4
99733.4
99733.3
99733.3
99733.3
99733.3
99733.2
99733.2
99733.2
99733.2
99733.1
99733.1
99733
99733
99732.9
99733
99466.9
99466.9
99466.9
99466.9
99466.9
99466.9
99466.8
99466.8
99466.8
99466.8
99466.8
99466.8
99466.7
99466.7
99466.7
99466.7
99466.7
99466.7
99466.7
99466.7
99200.5
99200.5
99200.5
99200.5
99200.5
99200.5
99200.5
99200.5
99200.4
99200.4
99200.4
99200.4
99200.4
99200.4
99200.4
99200.4
99200.4
99200.4
99200.4
99200.4
98934.3
98934.3
98934.3
98934.3
98934.3
98934.2
98934.2
98934.2
98934.2
98934.2
98934.2
98934.2
98934.2
98934.2
98934.2
98934.1
98934.1
98934.2
98934.2
98934.2
98668.2
98668.2
98668.2
98668.2
98668.2
98668.1
98668.1
98668.1
98668.1
98668.1
98668.1
98668.1
98668.1
98668.1
98668.1
98668.1
98668.1
98668.1
98668.1
98668.1
98402.3
98402.3
98402.3
98402.2
98402.2
98402.2
98402.2
98402.2
98402.2
98402.2
98402.2
98402.2
98402.2
98402.2
98402.2
98402.2
98402.2
98402.2
98402.2
98402.3
98136.5
98136.5
98136.5
98136.4
98136.4
98136.4
98136.5
98136.5
98136.5
98136.5
98136.5
98136.5
98136.5
98136.5
98136.5
98136.6
98136.6
98136.7
98136.7
98136.7
97870.8
97870.8
97870.8
97870.8
97870.8
97870.9
97870.9
97870.9
97871
97871
97871.1
97871.1
97871.1
97871.2
97871.2
97871.3
97871.4
97871.5
97871.5
97871.5
97604.9
97605
97605.1
97605.2
97605.3
97605.4
97605.5
97605.6
97605.7
97605.8
97605.9
97606
97606.1
97606.2
97606.3
97606.4
97606.6
97606.7
97606.8
97606.9
)
;

boundaryField
{
    leftWall
    {
        type            zeroGradient;
    }
    rightWall
    {
        type            zeroGradient;
    }
    topWall
    {
        type            zeroGradient;
    }
    bottomWall
    {
        type            zeroGradient;
    }
    frontAndBackPlanes
    {
        type            empty;
    }
}


// ************************************************************************* //
