/*--------------------------------*- C++ -*----------------------------------*\
| =========                 |                                                 |
| \\      /  F ield         | OpenFOAM: The Open Source CFD Toolbox           |
|  \\    /   O peration     | Version:  2506                                  |
|   \\  /    A nd           | Website:  www.openfoam.com                      |
|    \\/     M anipulation  |                                                 |
\*---------------------------------------------------------------------------*/
FoamFile
{
    version     2.0;
    format      ascii;
    arch        "LSB;label=32;scalar=64";
    class       volVectorField;
    location    "104.6";
    object      U;
}
// * * * * * * * * * * * * * * * * * * * * * * * * * * * * * * * * * * * * * //

dimensions      [0 1 -1 0 0 0 0];

internalField   nonuniform List<vector> 
200
(
(0.00037761 -0.00104038 0)
(0.00207114 -0.00134658 0)
(0.00393736 -0.00101056 0)
(0.00546435 -0.000569936 0)
(0.0064427 -0.000227009 0)
(0.00698599 -2.9587e-05 0)
(0.00726933 3.62974e-05 0)
(0.00745278 4.75007e-06 0)
(0.00765888 -9.16262e-05 0)
(0.00797336 -0.000231093 0)
(0.00845365 -0.000404287 0)
(0.00913768 -0.000610062 0)
(0.0100462 -0.000845807 0)
(0.01117 -0.00109008 0)
(0.0124264 -0.00127216 0)
(0.013561 -0.00121804 0)
(0.014 -0.000566686 0)
(0.0128438 0.00122295 0)
(0.00918259 0.00423374 0)
(0.0027648 0.0058669 0)
(0.000469793 -0.00421925 0)
(0.00305398 -0.006654 0)
(0.00592892 -0.00607553 0)
(0.00844636 -0.00446 0)
(0.0102936 -0.00284042 0)
(0.0115194 -0.00165383 0)
(0.0123075 -0.000997061 0)
(0.0128516 -0.000805824 0)
(0.0133079 -0.000963469 0)
(0.0137834 -0.00135741 0)
(0.0143386 -0.00189804 0)
(0.0149918 -0.00250872 0)
(0.0157133 -0.00308927 0)
(0.016405 -0.00345084 0)
(0.0168603 -0.00322158 0)
(0.0167116 -0.00174087 0)
(0.0153649 0.00195175 0)
(0.0121637 0.0085588 0)
(0.00707037 0.0165735 0)
(0.00120462 0.0168398 0)
(0.000470536 -0.00762716 0)
(0.00303538 -0.0124295 0)
(0.00581203 -0.0117532 0)
(0.00824357 -0.00903514 0)
(0.0100523 -0.00615553 0)
(0.011286 -0.00392715 0)
(0.0121051 -0.00255559 0)
(0.0126694 -0.0019536 0)
(0.0130987 -0.00192839 0)
(0.0134677 -0.00227793 0)
(0.0138106 -0.00282344 0)
(0.0141242 -0.00339357 0)
(0.0143616 -0.00376736 0)
(0.0144144 -0.00358214 0)
(0.0140866 -0.00222742 0)
(0.0130577 0.00120199 0)
(0.0110184 0.00761044 0)
(0.00781525 0.0170759 0)
(0.00387653 0.026306 0)
(0.000449385 0.0226943 0)
(0.000430363 -0.0108382 0)
(0.0026548 -0.0176267 0)
(0.00489476 -0.0166553 0)
(0.00673711 -0.0128458 0)
(0.00802226 -0.00883732 0)
(0.00884884 -0.00572845 0)
(0.00937342 -0.0037662 0)
(0.0097197 -0.00280468 0)
(0.00996182 -0.00256862 0)
(0.0101354 -0.00278154 0)
(0.0102511 -0.00320231 0)
(0.0103 -0.00359562 0)
(0.0102464 -0.00365294 0)
(0.0100105 -0.00288466 0)
(0.00944901 -0.000534392 0)
(0.00835916 0.00435252 0)
(0.00661487 0.0124972 0)
(0.00423886 0.0233638 0)
(0.0017082 0.0323357 0)
(7.51466e-05 0.0253612 0)
(0.000371283 -0.0135591 0)
(0.00206031 -0.0216341 0)
(0.00349931 -0.0200695 0)
(0.00448989 -0.0152131 0)
(0.00503964 -0.0103163 0)
(0.00530741 -0.00662053 0)
(0.00543588 -0.00431662 0)
(0.00550206 -0.00315668 0)
(0.00553137 -0.00278476 0)
(0.00552579 -0.00287969 0)
(0.00548206 -0.00317744 0)
(0.00539388 -0.00341557 0)
(0.00524058 -0.00322978 0)
(0.00496936 -0.00203873 0)
(0.00447373 0.00100494 0)
(0.00366607 0.00681577 0)
(0.00251321 0.0159134 0)
(0.00116436 0.0272032 0)
(3.26497e-05 0.0352707 0)
(-0.000171566 0.0259737 0)
(0.000285832 -0.0155904 0)
(0.00121412 -0.0240364 0)
(0.0015953 -0.0215861 0)
(0.00154003 -0.0158435 0)
(0.00125154 -0.0104212 0)
(0.00091889 -0.00651353 0)
(0.000632883 -0.00416044 0)
(0.000404859 -0.002996 0)
(0.000214082 -0.00261118 0)
(4.03768e-05 -0.00267846 0)
(-0.000127034 -0.00293966 0)
(-0.000297217 -0.00311937 0)
(-0.000490131 -0.00280958 0)
(-0.000740567 -0.00136849 0)
(-0.00109338 0.00207385 0)
(-0.00152273 0.00832876 0)
(-0.0019112 0.0176305 0)
(-0.00201034 0.0284483 0)
(-0.00155345 0.0352185 0)
(-0.00036545 0.0248712 0)
(0.000154686 -0.0165518 0)
(-5.9968e-05 -0.024233 0)
(-0.00108716 -0.0206884 0)
(-0.00237373 -0.0144268 0)
(-0.00356719 -0.00901808 0)
(-0.00452085 -0.0053586 0)
(-0.00523567 -0.00326867 0)
(-0.00577201 -0.00229737 0)
(-0.00619102 -0.0020354 0)
(-0.00653475 -0.00218063 0)
(-0.00682951 -0.00248864 0)
(-0.00709554 -0.0026766 0)
(-0.00734828 -0.00232497 0)
(-0.00757986 -0.000819673 0)
(-0.00771906 0.00259358 0)
(-0.00758717 0.00854486 0)
(-0.00692685 0.0170581 0)
(-0.00548244 0.0265417 0)
(-0.00326645 0.0319446 0)
(-0.000598971 0.0219942 0)
(-0.000167537 -0.0157374 0)
(-0.00213034 -0.0212397 0)
(-0.00486895 -0.0167743 0)
(-0.00747361 -0.010743 0)
(-0.00951156 -0.00605996 0)
(-0.0109633 -0.0031539 0)
(-0.0119681 -0.00165176 0)
(-0.0126784 -0.00108536 0)
(-0.0132111 -0.0010869 0)
(-0.013647 -0.00139837 0)
(-0.0140373 -0.00180989 0)
(-0.0144025 -0.0020736 0)
(-0.0147218 -0.00183658 0)
(-0.0149042 -0.000615972 0)
(-0.0147385 0.00214705 0)
(-0.0139173 0.00691475 0)
(-0.0120845 0.0136525 0)
(-0.00902103 0.0210549 0)
(-0.00501967 0.0251604 0)
(-0.000850251 0.0172417 0)
(-0.00079357 -0.0120259 0)
(-0.00510003 -0.0141641 0)
(-0.00949126 -0.00967027 0)
(-0.0129052 -0.00506833 0)
(-0.0150861 -0.00202105 0)
(-0.0163347 -0.000437451 0)
(-0.0170322 0.000155337 0)
(-0.0174617 0.000173261 0)
(-0.0177882 -0.000117057 0)
(-0.0181161 -0.000554896 0)
(-0.0185022 -0.00101677 0)
(-0.0189464 -0.0013616 0)
(-0.0193814 -0.00138808 0)
(-0.0196447 -0.00081714 0)
(-0.0194403 0.000692731 0)
(-0.0183303 0.00347591 0)
(-0.0158508 0.00757825 0)
(-0.011746 0.0122615 0)
(-0.00645255 0.0151318 0)
(-0.00109421 0.0107079 0)
(-0.00192084 -0.00410421 0)
(-0.00686382 -0.0036766 0)
(-0.0104929 -0.00177954 0)
(-0.0124855 -0.000407104 0)
(-0.0132262 0.000264115 0)
(-0.0133159 0.00047847 0)
(-0.0131552 0.000452471 0)
(-0.012961 0.000328981 0)
(-0.0128612 0.000170552 0)
(-0.0129121 -2.67267e-06 0)
(-0.0131311 -0.000177908 0)
(-0.0135102 -0.000341008 0)
(-0.0139949 -0.000464168 0)
(-0.0144587 -0.000494752 0)
(-0.01467 -0.000343101 0)
(-0.0142833 0.00013177 0)
(-0.0128357 0.00105056 0)
(-0.00994821 0.0023625 0)
(-0.00583119 0.00352303 0)
(-0.00139019 0.0029866 0)
)
;

boundaryField
{
    leftWall
    {
        type            fixedValue;
        value           uniform (0 0 0);
    }
    rightWall
    {
        type            fixedValue;
        value           uniform (0 0 0);
    }
    topWall
    {
        type            fixedValue;
        value           uniform (0 0 0);
    }
    bottomWall
    {
        type            fixedValue;
        value           uniform (0 0 0);
    }
    frontAndBackPlanes
    {
        type            empty;
    }
}


// ************************************************************************* //
