/*--------------------------------*- C++ -*----------------------------------*\
| =========                 |                                                 |
| \\      /  F ield         | OpenFOAM: The Open Source CFD Toolbox           |
|  \\    /   O peration     | Version:  2506                                  |
|   \\  /    A nd           | Website:  www.openfoam.com                      |
|    \\/     M anipulation  |                                                 |
\*---------------------------------------------------------------------------*/
FoamFile
{
    version     2.0;
    format      ascii;
    arch        "LSB;label=32;scalar=64";
    class       volVectorField;
    location    "9";
    object      U;
}
// * * * * * * * * * * * * * * * * * * * * * * * * * * * * * * * * * * * * * //

dimensions      [0 1 -1 0 0 0 0];

internalField   nonuniform List<vector> 
200
(
(-0.00027246 -0.000155269 0)
(-0.000337657 -0.000219085 0)
(-6.07227e-05 -0.000210045 0)
(0.000348227 -0.000244875 0)
(0.000809772 -0.000288434 0)
(0.00136632 -0.00033424 0)
(0.00202266 -0.000389497 0)
(0.00278799 -0.000460199 0)
(0.0036794 -0.000551269 0)
(0.00471827 -0.000667102 0)
(0.00592581 -0.000810757 0)
(0.00731697 -0.000981655 0)
(0.00889063 -0.0011709 0)
(0.0106124 -0.0013522 0)
(0.0123788 -0.00146271 0)
(0.0139308 -0.00135705 0)
(0.0146856 -0.000700179 0)
(0.0137426 0.00113863 0)
(0.0100742 0.00442997 0)
(0.00310308 0.00655332 0)
(-3.49569e-05 -0.000269139 0)
(3.04144e-05 -0.000697057 0)
(0.000375688 -0.00108282 0)
(0.00092565 -0.00146534 0)
(0.00165616 -0.00181822 0)
(0.00255393 -0.00216256 0)
(0.00361167 -0.0025262 0)
(0.0048301 -0.0029315 0)
(0.00621449 -0.00339156 0)
(0.0077677 -0.00390659 0)
(0.00948076 -0.00445699 0)
(0.0113194 -0.0049908 0)
(0.0132045 -0.00540218 0)
(0.0149838 -0.00549478 0)
(0.0163963 -0.0049198 0)
(0.0170314 -0.00307914 0)
(0.0162816 0.000971808 0)
(0.0133543 0.00819701 0)
(0.00806583 0.0174193 0)
(0.00145712 0.0188586 0)
(-1.52562e-06 -0.000278752 0)
(0.000108661 -0.00110709 0)
(0.000442593 -0.00198142 0)
(0.000981146 -0.00278585 0)
(0.0016982 -0.00350928 0)
(0.00257336 -0.00418975 0)
(0.00359448 -0.00487175 0)
(0.00475533 -0.00558639 0)
(0.00605015 -0.00634222 0)
(0.00746613 -0.00711682 0)
(0.00897351 -0.00784366 0)
(0.0105125 -0.00839086 0)
(0.0119763 -0.00852894 0)
(0.0131911 -0.0078835 0)
(0.0138969 -0.00587189 0)
(0.0137368 -0.00164838 0)
(0.0122612 0.00580332 0)
(0.00922271 0.0167971 0)
(0.00495532 0.0282184 0)
(0.000697751 0.0260021 0)
(-8.93664e-06 -0.000364071 0)
(5.70232e-05 -0.00153969 0)
(0.00029117 -0.00279102 0)
(0.000684044 -0.00394176 0)
(0.00121783 -0.00497002 0)
(0.00187446 -0.00592351 0)
(0.00264217 -0.00685842 0)
(0.00351442 -0.00781016 0)
(0.00448506 -0.00877911 0)
(0.00554161 -0.0097182 0)
(0.00665653 -0.0105149 0)
(0.00777605 -0.0109644 0)
(0.00880678 -0.0107338 0)
(0.00960261 -0.00931705 0)
(0.00995802 -0.00599201 0)
(0.00961166 0.000172905 0)
(0.00830082 0.0100598 0)
(0.00595163 0.0234052 0)
(0.00294962 0.0355555 0)
(0.000348924 0.0300582 0)
(-1.75963e-05 -0.000353154 0)
(-4.98761e-05 -0.00172548 0)
(1.42807e-05 -0.00324126 0)
(0.000180406 -0.00464522 0)
(0.000438424 -0.00589378 0)
(0.000775274 -0.00704118 0)
(0.0011839 -0.00815571 0)
(0.001664 -0.00927952 0)
(0.00221861 -0.0104094 0)
(0.00284857 -0.0114806 0)
(0.00354515 -0.0123444 0)
(0.00428005 -0.0127375 0)
(0.00499202 -0.0122427 0)
(0.00557491 -0.0102541 0)
(0.00587486 -0.00596047 0)
(0.00569938 0.00158691 0)
(0.00488259 0.0131103 0)
(0.00340067 0.0278707 0)
(0.00156665 0.0401636 0)
(0.000151009 0.0322893 0)
(-3.20856e-05 -0.000210366 0)
(-0.000181354 -0.00160119 0)
(-0.000312657 -0.00324462 0)
(-0.000412645 -0.00478574 0)
(-0.000481604 -0.00615232 0)
(-0.00052675 -0.00740388 0)
(-0.000548494 -0.008624 0)
(-0.00053734 -0.0098683 0)
(-0.000475751 -0.0111401 0)
(-0.000342059 -0.0123701 0)
(-0.00011696 -0.0133888 0)
(0.000209735 -0.013887 0)
(0.000620354 -0.0133713 0)
(0.00105505 -0.0111393 0)
(0.00140987 -0.00629339 0)
(0.00155191 0.00212624 0)
(0.00135151 0.014696 0)
(0.000845325 0.0302703 0)
(0.000236844 0.0424707 0)
(-3.72317e-05 0.0331664 0)
(-4.36622e-05 6.62796e-05 0)
(-0.000289264 -0.00115347 0)
(-0.000598405 -0.00277082 0)
(-0.000960595 -0.00430825 0)
(-0.00137312 -0.00566054 0)
(-0.00183905 -0.00689575 0)
(-0.00235318 -0.00811838 0)
(-0.00289828 -0.00940563 0)
(-0.0034451 -0.010779 0)
(-0.00395284 -0.0121803 0)
(-0.00437138 -0.0134373 0)
(-0.00464793 -0.0142149 0)
(-0.00474102 -0.0139632 0)
(-0.00463801 -0.0118866 0)
(-0.00436022 -0.0069931 0)
(-0.00393009 0.00169489 0)
(-0.00339439 0.0145787 0)
(-0.00262417 0.030183 0)
(-0.00156323 0.0419883 0)
(-0.00028464 0.0324502 0)
(-3.9673e-05 0.000415121 0)
(-0.000289567 -0.000478369 0)
(-0.000685267 -0.00189209 0)
(-0.00124084 -0.00323444 0)
(-0.00195643 -0.00438161 0)
(-0.002829 -0.00541703 0)
(-0.00385 -0.00646725 0)
(-0.00500514 -0.0076333 0)
(-0.00627149 -0.00896428 0)
(-0.00761105 -0.0104338 0)
(-0.00896338 -0.0118997 0)
(-0.0102413 -0.0130431 0)
(-0.0113324 -0.0133003 0)
(-0.0121046 -0.0118315 0)
(-0.0124005 -0.00760161 0)
(-0.011995 0.000339962 0)
(-0.0106144 0.012245 0)
(-0.0080611 0.0265595 0)
(-0.00453663 0.0374175 0)
(-0.000767384 0.0292006 0)
(1.30914e-05 0.000642484 0)
(-3.6895e-05 0.000122426 0)
(-0.000338963 -0.000882674 0)
(-0.000930606 -0.00179098 0)
(-0.00179734 -0.0025113 0)
(-0.00291049 -0.0031395 0)
(-0.00425704 -0.00380212 0)
(-0.00584451 -0.00460248 0)
(-0.00769266 -0.00560734 0)
(-0.00981836 -0.00683177 0)
(-0.0122144 -0.00820219 0)
(-0.0148218 -0.00949166 0)
(-0.0174927 -0.0102439 0)
(-0.0199497 -0.00974249 0)
(-0.0217461 -0.00710679 0)
(-0.0222337 -0.00155453 0)
(-0.0204739 0.00717103 0)
(-0.0159686 0.0179408 0)
(-0.00918724 0.0266192 0)
(-0.00164594 0.0217567 0)
(0.000147665 0.000328993 0)
(0.000384806 0.000179576 0)
(0.000316563 -0.000105311 0)
(-7.21809e-05 -0.000321851 0)
(-0.000712375 -0.000462733 0)
(-0.00154028 -0.000573301 0)
(-0.00254618 -0.000698241 0)
(-0.00376356 -0.000871895 0)
(-0.00525731 -0.00112077 0)
(-0.00711238 -0.00146321 0)
(-0.00941645 -0.00189931 0)
(-0.0122231 -0.00238683 0)
(-0.0154838 -0.00280641 0)
(-0.01895 -0.002941 0)
(-0.0220728 -0.00250295 0)
(-0.0239585 -0.00120469 0)
(-0.0234784 0.00118408 0)
(-0.0196433 0.00463205 0)
(-0.0124841 0.00803865 0)
(-0.00342023 0.00760188 0)
)
;

boundaryField
{
    leftWall
    {
        type            fixedValue;
        value           uniform (0 0 0);
    }
    rightWall
    {
        type            fixedValue;
        value           uniform (0 0 0);
    }
    topWall
    {
        type            fixedValue;
        value           uniform (0 0 0);
    }
    bottomWall
    {
        type            fixedValue;
        value           uniform (0 0 0);
    }
    frontAndBackPlanes
    {
        type            empty;
    }
}


// ************************************************************************* //
