/*--------------------------------*- C++ -*----------------------------------*\
| =========                 |                                                 |
| \\      /  F ield         | OpenFOAM: The Open Source CFD Toolbox           |
|  \\    /   O peration     | Version:  2506                                  |
|   \\  /    A nd           | Website:  www.openfoam.com                      |
|    \\/     M anipulation  |                                                 |
\*---------------------------------------------------------------------------*/
FoamFile
{
    version     2.0;
    format      ascii;
    arch        "LSB;label=32;scalar=64";
    class       surfaceScalarField;
    location    "13.6";
    object      phi;
}
// * * * * * * * * * * * * * * * * * * * * * * * * * * * * * * * * * * * * * //

dimensions      [1 0 -1 0 0 0 0];

oriented        oriented;

internalField   nonuniform List<scalar> 
370
(
-8.38728e-05
-2.84606e-05
-2.14523e-05
-6.24274e-05
7.89229e-05
-0.000100387
0.000221593
-0.000142688
0.000404192
-0.00018262
0.000623917
-0.000219749
0.000878955
-0.000255064
0.00116821
-0.000289283
0.00149059
-0.000322409
0.00184407
-0.000353509
0.00222458
-0.000380534
0.00262457
-0.000400018
0.00303092
-0.000406367
0.00341963
-0.000388723
0.0037455
-0.00032587
0.00391888
-0.000173341
0.00377871
0.000140244
0.00310761
0.000671242
0.00169366
0.00141412
0.00169378
1.48658e-05
-4.33229e-05
0.000109795
-0.000157349
0.000286928
-0.000277515
0.000539147
-0.000394907
0.000859736
-0.000503216
0.00124175
-0.000601777
0.00167855
-0.000691881
0.00216321
-0.000773954
0.0026868
-0.000846014
0.00323611
-0.000902847
0.00379102
-0.000935456
0.00432133
-0.000930346
0.00478285
-0.000867896
0.00511263
-0.000718513
0.00522202
-0.000435266
0.00499392
5.4774e-05
0.00428252
0.00085165
0.00296561
0.00198817
0.00121111
0.00316862
0.00290488
3.63404e-05
-7.96524e-05
0.000152405
-0.000273388
0.000350184
-0.000475266
0.000623045
-0.000667749
0.000963196
-0.000843358
0.00136296
-0.00100154
0.00181467
-0.0011436
0.00230935
-0.00126864
0.00283445
-0.00137112
0.00337102
-0.00143943
0.00389079
-0.00145524
0.00435346
-0.00139303
0.00470445
-0.00121888
0.00487339
-0.000887454
0.0047748
-0.000336664
0.00431463
0.000514951
0.00343106
0.00173521
0.00215679
0.00326237
0.000778159
0.00454712
0.00368295
3.05165e-05
-0.000110151
0.00012872
-0.000371549
0.000294338
-0.000640837
0.000522831
-0.000896207
0.000808235
-0.00112874
0.00114489
-0.00133819
0.00152731
-0.00152601
0.00194846
-0.0016898
0.00239704
-0.0018197
0.00285421
-0.00189661
0.0032907
-0.00189172
0.00366498
-0.0017673
0.00392348
-0.00147737
0.00400286
-0.000966806
0.0038354
-0.000169169
0.00336118
0.000989211
0.0025617
0.0025347
0.00151673
0.00430727
0.000496311
0.00556739
0.00417917
1.15771e-05
-0.000121704
6.1044e-05
-0.000420958
0.000154642
-0.000734374
0.000292534
-0.00103405
0.000472797
-0.00130898
0.000694329
-0.00155971
0.000956466
-0.00178814
0.00125745
-0.00199078
0.00159106
-0.0021533
0.00194268
-0.00224822
0.00228611
-0.00223512
0.00258257
-0.00206371
0.00278322
-0.00167793
0.00283458
-0.00101807
0.00268772
-2.22061e-05
0.00230346
0.0013736
0.00169009
0.00314818
0.000938398
0.005059
0.000268557
0.0062372
0.00444773
-1.74141e-05
-0.000104259
-3.73678e-05
-0.000400935
-4.43656e-05
-0.000727301
-3.24472e-05
-0.00104591
1.49994e-06
-0.00134289
6.13885e-05
-0.00161957
0.000153394
-0.00188013
0.000283243
-0.00212061
0.000452486
-0.00232252
0.00065388
-0.00244955
0.000867847
-0.00244896
0.00106236
-0.00225801
0.00119748
-0.00181277
0.00123322
-0.00105351
0.00114009
7.12179e-05
0.000906227
0.00160784
0.000568334
0.00348648
0.000222033
0.00540568
7.68039e-06
0.00645187
0.00445564
-4.91617e-05
-5.50637e-05
-0.000146695
-0.000303323
-0.000269286
-0.000604628
-0.000408011
-0.000907124
-0.000556959
-0.0011939
-0.000707743
-0.00146876
-0.00084873
-0.00173911
-0.000966791
-0.0020025
-0.00105136
-0.00223784
-0.00109921
-0.00240148
-0.00111749
-0.00243026
-0.00112206
-0.00225276
-0.00113048
-0.00180346
-0.00115248
-0.00103057
-0.00118394
0.000103605
-0.00117806
0.00160301
-0.00107317
0.0033827
-0.000801441
0.00513501
-0.000367067
0.00601837
0.00408902
-6.69753e-05
1.19482e-05
-0.000219591
-0.000150623
-0.000441342
-0.000382786
-0.000727921
-0.000620472
-0.00107466
-0.000847104
-0.00147302
-0.00107035
-0.00191025
-0.00130183
-0.00237011
-0.00154252
-0.00283461
-0.00177307
-0.00328604
-0.00194945
-0.00370708
-0.00200808
-0.00407655
-0.00188152
-0.00436127
-0.00151648
-0.00450864
-0.000880765
-0.00445095
4.82906e-05
-0.00407739
0.00123177
-0.00332128
0.00262874
-0.00218299
0.00399863
-0.000864402
0.00470128
0.00322533
-3.68588e-05
4.88473e-05
-0.000163883
-2.35032e-05
-0.000408572
-0.000137993
-0.000773212
-0.000255747
-0.00125503
-0.000365225
-0.00185006
-0.000475261
-0.00255491
-0.000596881
-0.00336325
-0.00073395
-0.00425913
-0.000876636
-0.00521013
-0.000997203
-0.00616131
-0.00105462
-0.00703155
-0.00100781
-0.00771258
-0.000831073
-0.00807106
-0.000517568
-0.00795857
-5.97819e-05
-0.00723612
0.000513129
-0.00582044
0.0012163
-0.00376459
0.00194549
-0.00145059
0.00238936
0.00177571
4.8896e-05
2.55075e-05
-0.000112364
-0.000368012
-0.000733163
-0.00120836
-0.00180516
-0.0025389
-0.00341497
-0.00441079
-0.00546268
-0.00646617
-0.00729161
-0.00780295
-0.00785671
-0.00733835
-0.00611771
-0.00416877
-0.00177691
)
;

boundaryField
{
    leftWall
    {
        type            calculated;
        value           nonuniform List<scalar> 10(0 -8.47033e-22 0 6.77626e-21 0 0 0 0 0 0);
    }
    rightWall
    {
        type            calculated;
        value           nonuniform List<scalar> 10(1.0842e-19 0 4.33681e-19 0 0 0 0 -8.67362e-19 0 0);
    }
    topWall
    {
        type            calculated;
        value           uniform 0;
    }
    bottomWall
    {
        type            calculated;
        value           uniform 0;
    }
    frontAndBackPlanes
    {
        type            empty;
    }
}


// ************************************************************************* //
