/*--------------------------------*- C++ -*----------------------------------*\
| =========                 |                                                 |
| \\      /  F ield         | OpenFOAM: The Open Source CFD Toolbox           |
|  \\    /   O peration     | Version:  2506                                  |
|   \\  /    A nd           | Website:  www.openfoam.com                      |
|    \\/     M anipulation  |                                                 |
\*---------------------------------------------------------------------------*/
FoamFile
{
    version     2.0;
    format      ascii;
    arch        "LSB;label=32;scalar=64";
    class       volVectorField;
    location    "13.6";
    object      U;
}
// * * * * * * * * * * * * * * * * * * * * * * * * * * * * * * * * * * * * * //

dimensions      [0 1 -1 0 0 0 0];

internalField   nonuniform List<vector> 
200
(
(-0.000251776 -0.000115056 0)
(-0.000285075 -0.000186101 0)
(5.47783e-05 -0.000219445 0)
(0.00059573 -0.000297151 0)
(0.00127168 -0.000380425 0)
(0.00210902 -0.000459768 0)
(0.00309932 -0.000539779 0)
(0.00423483 -0.000624794 0)
(0.00551117 -0.000717737 0)
(0.00692293 -0.000820299 0)
(0.00845877 -0.000932729 0)
(0.0100966 -0.0010529 0)
(0.0117976 -0.00117353 0)
(0.0134936 -0.0012746 0)
(0.0150552 -0.00130197 0)
(0.0162118 -0.00111346 0)
(0.0164298 -0.000371456 0)
(0.0148432 0.00150826 0)
(0.0105336 0.0047405 0)
(0.00315026 0.00664029 0)
(-1.99417e-05 -0.000290888 0)
(0.00017311 -0.000884241 0)
(0.000750103 -0.0015087 0)
(0.00165262 -0.00215009 0)
(0.00285209 -0.00275059 0)
(0.00432183 -0.00330576 0)
(0.00603393 -0.00382587 0)
(0.00796097 -0.00431819 0)
(0.0100717 -0.00477863 0)
(0.0123225 -0.00518727 0)
(0.0146466 -0.00550503 0)
(0.0169421 -0.00566842 0)
(0.0190579 -0.00557697 0)
(0.020777 -0.00506395 0)
(0.0217958 -0.00383448 0)
(0.0216893 -0.00135651 0)
(0.0198343 0.00324268 0)
(0.0155977 0.010671 0)
(0.00906203 0.0194886 0)
(0.00157137 0.0197057 0)
(2.0871e-05 -0.00050186 0)
(0.000318624 -0.00178113 0)
(0.000970146 -0.00314497 0)
(0.00195721 -0.00445488 0)
(0.00324212 -0.00565383 0)
(0.00479097 -0.00673772 0)
(0.00657251 -0.00771784 0)
(0.00855387 -0.00859336 0)
(0.0106926 -0.0093348 0)
(0.0129258 -0.00987474 0)
(0.0151578 -0.010102 0)
(0.0172482 -0.00985509 0)
(0.0190017 -0.0089077 0)
(0.0201616 -0.00693675 0)
(0.0204056 -0.00346506 0)
(0.0193201 0.00220073 0)
(0.016538 0.010773 0)
(0.0119349 0.0221654 0)
(0.00615037 0.0327526 0)
(0.000823091 0.0280305 0)
(1.53692e-05 -0.000813571 0)
(0.000271032 -0.00275783 0)
(0.000817881 -0.004762 0)
(0.00164368 -0.0066612 0)
(0.00272005 -0.00838845 0)
(0.00402118 -0.00994032 0)
(0.00552474 -0.0113276 0)
(0.00720669 -0.0125363 0)
(0.00903158 -0.013503 0)
(0.0109396 -0.0141011 0)
(0.0128328 -0.0141365 0)
(0.0145651 -0.0133456 0)
(0.015938 -0.011392 0)
(0.0167091 -0.0078474 0)
(0.016605 -0.00215963 0)
(0.0153039 0.00633819 0)
(0.0126332 0.0180451 0)
(0.00865038 0.0320259 0)
(0.00408257 0.0428308 0)
(0.000448096 0.0333217 0)
(1.16174e-06 -0.00100893 0)
(0.000112572 -0.00341847 0)
(0.00040765 -0.00590478 0)
(0.000890832 -0.0082633 0)
(0.00155499 -0.0104133 0)
(0.00239268 -0.0123555 0)
(0.0034009 -0.0141029 0)
(0.00457672 -0.0156297 0)
(0.00590659 -0.0168348 0)
(0.00735039 -0.0175252 0)
(0.00882529 -0.0174144 0)
(0.0101959 -0.0161363 0)
(0.0112774 -0.0132637 0)
(0.0118573 -0.00831144 0)
(0.0117248 -0.000725461 0)
(0.0106274 0.0100488 0)
(0.00851806 0.0240725 0)
(0.005541 0.0396449 0)
(0.00234929 0.0499716 0)
(0.000180514 0.0365364 0)
(-2.15954e-05 -0.00099451 0)
(-0.0001213 -0.00356673 0)
(-0.000182418 -0.00630461 0)
(-0.000176314 -0.00894077 0)
(-8.60555e-05 -0.0113748 0)
(0.000104469 -0.0136148 0)
(0.000416809 -0.015683 0)
(0.000874965 -0.0175465 0)
(0.00149822 -0.0190672 0)
(0.00227802 -0.0199781 0)
(0.00316037 -0.0198894 0)
(0.00403674 -0.0183265 0)
(0.00475394 -0.0147837 0)
(0.00514809 -0.0087537 0)
(0.00507862 0.000274395 0)
(0.00437939 0.0127087 0)
(0.00315519 0.0282536 0)
(0.00163347 0.0445589 0)
(0.000271893 0.0539879 0)
(-0.000144172 0.0377937 0)
(-5.02131e-05 -0.000711881 0)
(-0.000381626 -0.00307189 0)
(-0.000840982 -0.00577189 0)
(-0.00139113 -0.00844189 0)
(-0.00199743 -0.0109533 0)
(-0.00263053 -0.0133251 0)
(-0.00324903 -0.0156034 0)
(-0.00379982 -0.017759 0)
(-0.00423112 -0.019624 0)
(-0.00451258 -0.0208601 0)
(-0.00465239 -0.0209744 0)
(-0.0047002 -0.0193901 0)
(-0.00472862 -0.0155418 0)
(-0.00479483 -0.00893373 0)
(-0.00490016 0.000843434 0)
(-0.00499148 0.0139458 0)
(-0.00477394 0.0296921 0)
(-0.00399046 0.0453881 0)
(-0.00255416 0.05348 0)
(-0.00052825 0.0364836 0)
(-6.39916e-05 -0.000183928 0)
(-0.000534313 -0.00194744 0)
(-0.00130559 -0.00425125 0)
(-0.00236708 -0.00660043 0)
(-0.00369261 -0.00884483 0)
(-0.00525324 -0.0110298 0)
(-0.00700501 -0.0132347 0)
(-0.00888785 -0.01545 0)
(-0.0108316 -0.0174958 0)
(-0.0127646 -0.0189861 0)
(-0.0146176 -0.019363 0)
(-0.016313 -0.0180115 0)
(-0.0177401 -0.0144009 0)
(-0.0187263 -0.00815917 0)
(-0.0189931 0.0009194 0)
(-0.0181122 0.0127355 0)
(-0.0157086 0.0265442 0)
(-0.011645 0.0399609 0)
(-0.00644067 0.0465597 0)
(-0.00111476 0.0315134 0)
(-1.89359e-05 0.000352929 0)
(-0.000322307 -0.000588849 0)
(-0.00107775 -0.00211909 0)
(-0.00234394 -0.00370425 0)
(-0.00410948 -0.00521605 0)
(-0.00635444 -0.00673137 0)
(-0.0090644 -0.0083597 0)
(-0.0122246 -0.0101241 0)
(-0.0157977 -0.0118816 0)
(-0.0196931 -0.0132889 0)
(-0.0237358 -0.01385 0)
(-0.0276431 -0.0130598 0)
(-0.0310174 -0.0105651 0)
(-0.0333597 -0.00621689 0)
(-0.0340728 1.73419e-06 0)
(-0.0323253 0.00802895 0)
(-0.0277556 0.0174501 0)
(-0.0203003 0.0267417 0)
(-0.0110053 0.0316466 0)
(-0.00187103 0.021929 0)
(0.000128302 0.000292935 0)
(0.000241564 0.000110367 0)
(-7.7499e-05 -0.000263089 0)
(-0.000899699 -0.000624968 0)
(-0.00219311 -0.000946953 0)
(-0.00393782 -0.00127326 0)
(-0.00616061 -0.00165618 0)
(-0.00892633 -0.00212038 0)
(-0.0122924 -0.00263822 0)
(-0.0162366 -0.00311422 0)
(-0.0205849 -0.00339908 0)
(-0.0249828 -0.00334782 0)
(-0.028933 -0.00288502 0)
(-0.0318689 -0.00200915 0)
(-0.0331945 -0.000712429 0)
(-0.0323129 0.0011364 0)
(-0.0286255 0.00368115 0)
(-0.021799 0.00666708 0)
(-0.0126347 0.00885721 0)
(-0.0031237 0.00697813 0)
)
;

boundaryField
{
    leftWall
    {
        type            fixedValue;
        value           uniform (0 0 0);
    }
    rightWall
    {
        type            fixedValue;
        value           uniform (0 0 0);
    }
    topWall
    {
        type            fixedValue;
        value           uniform (0 0 0);
    }
    bottomWall
    {
        type            fixedValue;
        value           uniform (0 0 0);
    }
    frontAndBackPlanes
    {
        type            empty;
    }
}


// ************************************************************************* //
