/*--------------------------------*- C++ -*----------------------------------*\
| =========                 |                                                 |
| \\      /  F ield         | OpenFOAM: The Open Source CFD Toolbox           |
|  \\    /   O peration     | Version:  2506                                  |
|   \\  /    A nd           | Website:  www.openfoam.com                      |
|    \\/     M anipulation  |                                                 |
\*---------------------------------------------------------------------------*/
FoamFile
{
    version     2.0;
    format      ascii;
    arch        "LSB;label=32;scalar=64";
    class       surfaceScalarField;
    location    "35.2";
    object      phi;
}
// * * * * * * * * * * * * * * * * * * * * * * * * * * * * * * * * * * * * * //

dimensions      [1 0 -1 0 0 0 0];

oriented        oriented;

internalField   nonuniform List<scalar> 
370
(
-4.49728e-05
-5.46063e-05
9.9269e-05
-0.000144234
0.000316797
-0.000217514
0.000583314
-0.000266497
0.000870032
-0.000286695
0.00115513
-0.000285074
0.00142688
-0.000271719
0.00168284
-0.000255936
0.00192778
-0.000244909
0.00217105
-0.000243247
0.00242388
-0.000252803
0.00269616
-0.000272258
0.00299152
-0.000295347
0.00330013
-0.00030858
0.00358547
-0.000285323
0.00375867
-0.000173175
0.003649
0.000109702
0.0030272
0.000621837
0.00166122
0.00136603
0.00166126
0.000116958
-0.000171555
0.000441633
-0.000468879
0.000905667
-0.000681497
0.00143915
-0.000799909
0.00198777
-0.000835222
0.00251479
-0.000811992
0.00300058
-0.000757408
0.00343923
-0.000694483
0.00383361
-0.000639188
0.00419016
-0.000599697
0.00451359
-0.000576128
0.00480104
-0.000559614
0.00503568
-0.000529903
0.005178
-0.000450825
0.00515565
-0.000262905
0.00485676
0.000125781
0.00413868
0.000827863
0.00286204
0.00189858
0.00117026
0.00305791
0.00283159
0.000202788
-0.000374319
0.000670001
-0.000936013
0.00127888
-0.00129023
0.00192868
-0.00144951
0.00255183
-0.00145814
0.00311184
-0.00137175
0.00359572
-0.00124104
0.00400511
-0.00110361
0.00434821
-0.00098204
0.00463324
-0.000884488
0.00486276
-0.000805421
0.00502821
-0.000724847
0.00510419
-0.000605696
0.00504312
-0.000389578
0.004774
6.36918e-06
0.0042117
0.000688223
0.00329579
0.00174392
0.0020495
0.00314503
0.000732486
0.00437511
0.00356418
0.000254478
-0.000628745
0.000797702
-0.00147907
0.0014501
-0.00194234
0.0020875
-0.00208652
0.0026414
-0.00201158
0.00308779
-0.00181766
0.00343097
-0.00158374
0.00368869
-0.00136088
0.00388148
-0.0011744
0.0040255
-0.0010281
0.00412754
-0.000907087
0.00418078
-0.000777728
0.00416069
-0.00058528
0.0040231
-0.000251706
0.00370701
0.000322705
0.00315874
0.00123672
0.00235438
0.0025485
0.00136327
0.00413638
0.000430843
0.00530779
0.00399516
0.000277008
-0.000905656
0.00081135
-0.0020131
0.00138775
-0.00251821
0.00187958
-0.00257766
0.00223553
-0.00236677
0.00245752
-0.0020389
0.00257497
-0.00170048
0.00262491
-0.00141017
0.00264016
-0.00118906
0.00264342
-0.00103081
0.00264425
-0.000907396
0.00263697
-0.000769978
0.00259893
-0.000546795
0.00249056
-0.000142952
0.00226028
0.000553315
0.00186919
0.0016281
0.00131602
0.00310196
0.000679842
0.00477287
0.000162887
0.00582504
0.0041582
0.000246813
-0.00115231
0.000648838
-0.00241461
0.000998008
-0.00286655
0.0012007
-0.00277933
0.00124397
-0.00240899
0.00116698
-0.00196092
0.00102389
-0.00155652
0.00086366
-0.00124918
0.000720904
-0.00104562
0.000614111
-0.000923373
0.000546828
-0.0008395
0.000509266
-0.00073182
0.000479901
-0.000516864
0.000428087
-9.0635e-05
0.000326031
0.000655801
0.000164485
0.00179005
-2.66391e-05
0.00329349
-0.000167161
0.00491379
-0.000151597
0.0058098
0.00400673
0.000126753
-0.00127881
0.000222651
-0.00250974
0.000163508
-0.00280623
-6.10257e-05
-0.00255344
-0.000400957
-0.00206777
-0.000789486
-0.00157129
-0.00116837
-0.00117671
-0.00150023
-0.000916523
-0.00176808
-0.000777029
-0.00196981
-0.000720913
-0.00211198
-0.000696578
-0.0022043
-0.000638732
-0.00225428
-0.000466124
-0.00226306
-8.11345e-05
-0.00220482
0.000598185
-0.00204746
0.00163325
-0.00173585
0.00298241
-0.00121353
0.00439193
-0.000524791
0.0051214
0.00348207
-0.0001283
-0.00115016
-0.000538689
-0.00209831
-0.00115466
-0.00218876
-0.00186255
-0.00184396
-0.00256025
-0.00136868
-0.0031864
-0.000943984
-0.00371708
-0.000645092
-0.00415345
-0.000479297
-0.00450922
-0.000420445
-0.00480005
-0.000429251
-0.00503542
-0.000460342
-0.00521148
-0.000461785
-0.00530396
-0.000372754
-0.00526139
-0.000122852
-0.00501269
0.000350255
-0.00447658
0.00109782
-0.00358644
0.00209287
-0.00233889
0.00314486
-0.000928578
0.00371142
0.00255363
-0.000491205
-0.000658478
-0.0015001
-0.0010881
-0.00264727
-0.00103983
-0.00369956
-0.000789896
-0.00455456
-0.000512143
-0.00520418
-0.000293112
-0.00568951
-0.000158739
-0.0060666
-0.000101325
-0.00638579
-0.000100453
-0.00667995
-0.000134315
-0.00695879
-0.000180747
-0.00720417
-0.000215652
-0.00736408
-0.000212105
-0.00734843
-0.000137772
-0.00704527
4.78036e-05
-0.00631333
0.000366533
-0.00505333
0.000833414
-0.00327482
0.00136679
-0.00127621
0.00171312
0.00127755
-0.000657924
-0.00174455
-0.0027824
-0.00357026
-0.00408058
-0.00437217
-0.00452967
-0.00462999
-0.00472962
-0.00486323
-0.00504336
-0.00525844
-0.00547002
-0.00560728
-0.00555897
-0.00519197
-0.00435814
-0.00299102
-0.00127765
)
;

boundaryField
{
    leftWall
    {
        type            calculated;
        value           nonuniform List<scalar> 10(1.05879e-22 0 0 0 0 0 0 0 0 -1.0842e-19);
    }
    rightWall
    {
        type            calculated;
        value           nonuniform List<scalar> 10(0 0 0 0 0 0 8.67362e-19 0 0 0);
    }
    topWall
    {
        type            calculated;
        value           uniform 0;
    }
    bottomWall
    {
        type            calculated;
        value           uniform 0;
    }
    frontAndBackPlanes
    {
        type            empty;
    }
}


// ************************************************************************* //
