/*--------------------------------*- C++ -*----------------------------------*\
| =========                 |                                                 |
| \\      /  F ield         | OpenFOAM: The Open Source CFD Toolbox           |
|  \\    /   O peration     | Version:  2506                                  |
|   \\  /    A nd           | Website:  www.openfoam.com                      |
|    \\/     M anipulation  |                                                 |
\*---------------------------------------------------------------------------*/
FoamFile
{
    version     2.0;
    format      ascii;
    arch        "LSB;label=32;scalar=64";
    class       volVectorField;
    location    "35.2";
    object      U;
}
// * * * * * * * * * * * * * * * * * * * * * * * * * * * * * * * * * * * * * //

dimensions      [0 1 -1 0 0 0 0];

internalField   nonuniform List<vector> 
200
(
(-0.000224248 -0.00011992 0)
(-1.16426e-05 -0.000274076 0)
(0.000774833 -0.000381851 0)
(0.00184954 -0.000480634 0)
(0.00302185 -0.000527574 0)
(0.00422478 -0.00052732 0)
(0.00539138 -0.000506032 0)
(0.00649103 -0.000489275 0)
(0.00752968 -0.000497507 0)
(0.00853922 -0.000545514 0)
(0.0095656 -0.000642429 0)
(0.0106568 -0.000790923 0)
(0.0118474 -0.000983367 0)
(0.0131359 -0.00119106 0)
(0.0144422 -0.00134062 0)
(0.0155153 -0.00126121 0)
(0.015802 -0.000588066 0)
(0.0143917 0.00128077 0)
(0.0102944 0.00455064 0)
(0.00309617 0.0065189 0)
(7.14215e-05 -0.000819985 0)
(0.00101063 -0.00226945 0)
(0.00270306 -0.00339194 0)
(0.00484151 -0.00409906 0)
(0.00714179 -0.00437994 0)
(0.00941037 -0.00434194 0)
(0.0115332 -0.00412703 0)
(0.0134613 -0.00386596 0)
(0.0151931 -0.00365761 0)
(0.0167528 -0.00356148 0)
(0.0181687 -0.00359403 0)
(0.0194507 -0.00372186 0)
(0.0205646 -0.00384457 0)
(0.0214023 -0.00375861 0)
(0.0217436 -0.00309106 0)
(0.0212063 -0.00119472 0)
(0.0191943 0.0029087 0)
(0.0150407 0.0100332 0)
(0.00874179 0.0188025 0)
(0.0015138 0.0192647 0)
(0.000175729 -0.002176 0)
(0.00166272 -0.00564981 0)
(0.00396734 -0.00802895 0)
(0.00666786 -0.00926607 0)
(0.00937456 -0.00954951 0)
(0.011866 -0.00918578 0)
(0.014048 -0.00848543 0)
(0.0159056 -0.00769802 0)
(0.0174663 -0.00698783 0)
(0.0187698 -0.00642989 0)
(0.0198441 -0.00600913 0)
(0.0206819 -0.0056118 0)
(0.0212183 -0.00500238 0)
(0.0213081 -0.00378277 0)
(0.0207055 -0.00133522 0)
(0.0190358 0.00320825 0)
(0.0159746 0.010712 0)
(0.0113738 0.0213119 0)
(0.00580169 0.0315894 0)
(0.000760013 0.0272376 0)
(0.000238782 -0.00414166 0)
(0.00205922 -0.0100314 0)
(0.00463243 -0.0135247 0)
(0.00740628 -0.0149112 0)
(0.00993881 -0.0147478 0)
(0.0120373 -0.0136592 0)
(0.0136752 -0.0121776 0)
(0.0149111 -0.0106759 0)
(0.015833 -0.0093621 0)
(0.0165234 -0.0082963 0)
(0.0170345 -0.00740212 0)
(0.0173708 -0.00646223 0)
(0.0174724 -0.00509624 0)
(0.0172015 -0.00273061 0)
(0.016307 0.00141427 0)
(0.0145464 0.00818432 0)
(0.0117127 0.0182261 0)
(0.00784235 0.0309062 0)
(0.00359385 0.0411027 0)
(0.000359849 0.0320884 0)
(0.000291614 -0.00643679 0)
(0.00219503 -0.0147261 0)
(0.00459568 -0.0189174 0)
(0.00689726 -0.0199012 0)
(0.0086956 -0.0187939 0)
(0.00989329 -0.0166435 0)
(0.0105745 -0.0142283 0)
(0.0108924 -0.0120209 0)
(0.0110017 -0.0102315 0)
(0.0110231 -0.00886342 0)
(0.0110268 -0.00774689 0)
(0.0110232 -0.00654146 0)
(0.0109571 -0.00471748 0)
(0.0107035 -0.00154399 0)
(0.0100305 0.00386312 0)
(0.00876083 0.0122947 0)
(0.00676749 0.0240933 0)
(0.00416901 0.0378978 0)
(0.00155664 0.0473216 0)
(4.02475e-05 0.0346063 0)
(0.000305364 -0.00874024 0)
(0.00188848 -0.0189063 0)
(0.00351652 -0.0231005 0)
(0.00470584 -0.0230867 0)
(0.00521697 -0.0206719 0)
(0.00511523 -0.0173641 0)
(0.00461416 -0.0141464 0)
(0.00394314 -0.0115206 0)
(0.00328402 -0.0096288 0)
(0.00274979 -0.00836429 0)
(0.00238535 -0.00743128 0)
(0.00217561 -0.00635543 0)
(0.00205503 -0.00446775 0)
(0.00191888 -0.000907184 0)
(0.00160727 0.0052745 0)
(0.0010575 0.0147462 0)
(0.000289408 0.0275084 0)
(-0.000473875 0.0415688 0)
(-0.00083671 0.0497442 0)
(-0.000299309 0.0347611 0)
(0.00023001 -0.0104492 0)
(0.000860647 -0.0212957 0)
(0.000945588 -0.0246313 0)
(0.000335068 -0.0232087 0)
(-0.00089161 -0.019482 0)
(-0.00246472 -0.0153389 0)
(-0.00410648 -0.0118251 0)
(-0.00561528 -0.0093292 0)
(-0.00687811 -0.00782355 0)
(-0.00785904 -0.00704322 0)
(-0.0085733 -0.00656875 0)
(-0.0090617 -0.0058369 0)
(-0.00936735 -0.00412478 0)
(-0.00950723 -0.000569506 0)
(-0.00942919 0.00568079 0)
(-0.00900117 0.0150951 0)
(-0.00802137 0.0273653 0)
(-0.00626355 0.0402633 0)
(-0.00374738 0.047019 0)
(-0.000718473 0.0320261 0)
(-2.27425e-05 -0.0105685 0)
(-0.0011714 -0.020165 0)
(-0.00340775 -0.0218534 0)
(-0.00627652 -0.0191638 0)
(-0.00927993 -0.0148824 0)
(-0.012078 -0.0108015 0)
(-0.0145029 -0.00775403 0)
(-0.0165166 -0.00590867 0)
(-0.018159 -0.00507564 0)
(-0.0195001 -0.00490086 0)
(-0.0206008 -0.00494269 0)
(-0.0214814 -0.00467602 0)
(-0.0220928 -0.00347775 0)
(-0.0222825 -0.000646396 0)
(-0.0217306 0.00448538 0)
(-0.0201234 0.0122949 0)
(-0.0171098 0.0224347 0)
(-0.0125445 0.0329451 0)
(-0.00690927 0.0382889 0)
(-0.0011862 0.02594 0)
(-0.000500548 -0.00800912 0)
(-0.00394821 -0.0141571 0)
(-0.00862678 -0.0141963 0)
(-0.0133788 -0.0113362 0)
(-0.0174284 -0.00781711 0)
(-0.0205652 -0.00487961 0)
(-0.0228974 -0.00297065 0)
(-0.0246553 -0.00206377 0)
(-0.0260765 -0.00192165 0)
(-0.0273439 -0.00224104 0)
(-0.0285529 -0.00270093 0)
(-0.0296917 -0.00295695 0)
(-0.03062 -0.00262163 0)
(-0.0310492 -0.00125865 0)
(-0.030502 0.00159494 0)
(-0.0283937 0.00631482 0)
(-0.0241845 0.0127635 0)
(-0.0176761 0.0197199 0)
(-0.00962414 0.023675 0)
(-0.00164041 0.0165392 0)
(-0.00106616 -0.0024159 0)
(-0.00493773 -0.00364475 0)
(-0.00949549 -0.00316388 0)
(-0.0134372 -0.00209177 0)
(-0.0161785 -0.00106076 0)
(-0.0178178 -0.000329428 0)
(-0.0187017 6.11449e-05 0)
(-0.019192 0.000167411 0)
(-0.019577 7.1207e-05 0)
(-0.0200512 -0.000150792 0)
(-0.0207159 -0.000432668 0)
(-0.0215771 -0.00071115 0)
(-0.022535 -0.000912037 0)
(-0.023359 -0.000934651 0)
(-0.023657 -0.00062635 0)
(-0.0228855 0.000243481 0)
(-0.020369 0.00181638 0)
(-0.0156307 0.00393624 0)
(-0.00909821 0.0057018 0)
(-0.00217856 0.00472964 0)
)
;

boundaryField
{
    leftWall
    {
        type            fixedValue;
        value           uniform (0 0 0);
    }
    rightWall
    {
        type            fixedValue;
        value           uniform (0 0 0);
    }
    topWall
    {
        type            fixedValue;
        value           uniform (0 0 0);
    }
    bottomWall
    {
        type            fixedValue;
        value           uniform (0 0 0);
    }
    frontAndBackPlanes
    {
        type            empty;
    }
}


// ************************************************************************* //
