/*--------------------------------*- C++ -*----------------------------------*\
| =========                 |                                                 |
| \\      /  F ield         | OpenFOAM: The Open Source CFD Toolbox           |
|  \\    /   O peration     | Version:  2506                                  |
|   \\  /    A nd           | Website:  www.openfoam.com                      |
|    \\/     M anipulation  |                                                 |
\*---------------------------------------------------------------------------*/
FoamFile
{
    version     2.0;
    format      ascii;
    arch        "LSB;label=32;scalar=64";
    class       surfaceScalarField;
    location    "4";
    object      phi;
}
// * * * * * * * * * * * * * * * * * * * * * * * * * * * * * * * * * * * * * //

dimensions      [1 0 -1 0 0 0 0];

oriented        oriented;

internalField   nonuniform List<scalar> 
370
(
-0.000150994
-4.1566e-05
-0.000102202
-4.88117e-05
-5.83939e-05
-4.38349e-05
-9.97562e-06
-4.8447e-05
4.47576e-05
-5.47624e-05
0.000106965
-6.22369e-05
0.000177927
-7.09924e-05
0.000259142
-8.12447e-05
0.000352956
-9.38446e-05
0.000463002
-0.000110077
0.000594341
-0.000131371
0.000753317
-0.000159008
0.000946785
-0.000193501
0.00117959
-0.000232838
0.00144852
-0.000268947
0.00172774
-0.000279186
0.0019359
-0.000207819
0.00187288
6.45549e-05
0.00124773
0.000629606
0.00125379
-3.0923e-05
-1.0608e-05
-4.18784e-05
-3.78273e-05
-2.49843e-05
-6.07231e-05
1.24603e-05
-8.58965e-05
6.99002e-05
-0.00011221
0.000146173
-0.000138519
0.000239458
-0.000164286
0.000348513
-0.00019031
0.000473166
-0.000218507
0.00061427
-0.000251192
0.00077315
-0.000290261
0.000950412
-0.000336281
0.00114385
-0.000386945
0.00134482
-0.000433818
0.00153136
-0.000455489
0.00165627
-0.000404028
0.00163182
-0.000182983
0.00133402
0.000364068
0.000645029
0.00132362
0.00190565
-1.83106e-05
7.78139e-06
-2.90634e-05
-2.7001e-05
-1.86909e-05
-7.10679e-05
1.09573e-05
-0.000115539
5.8414e-05
-0.000159667
0.00012208
-0.000202187
0.000200098
-0.000242306
0.000290676
-0.000280891
0.000392352
-0.000320186
0.000503825
-0.000362669
0.00062333
-0.000409769
0.000747511
-0.000460466
0.000869738
-0.000509175
0.00097769
-0.000541771
0.00105011
-0.000527903
0.00105357
-0.000407405
0.000943021
-7.198e-05
0.000678252
0.000630796
0.000287697
0.00171988
0.00220093
-1.39356e-05
2.18389e-05
-2.12796e-05
-1.95419e-05
-1.52388e-05
-7.70633e-05
3.77225e-06
-0.000134539
3.43727e-05
-0.000190266
7.52705e-05
-0.000243085
0.000125118
-0.000292155
0.000182541
-0.000338315
0.00024618
-0.000383826
0.000314529
-0.000431019
0.00038552
-0.000480761
0.000455853
-0.0005308
0.000520092
-0.000573415
0.000569577
-0.000591254
0.000591393
-0.000549707
0.000568215
-0.000384139
0.000482721
1.40096e-05
0.000324776
0.000790879
0.000126974
0.00192386
0.00233599
-1.44231e-05
3.64269e-05
-2.54092e-05
-8.39947e-06
-2.66832e-05
-7.57272e-05
-2.00012e-05
-0.000141205
-7.46241e-06
-0.000202802
9.47709e-06
-0.000260024
2.99067e-05
-0.000312584
5.32445e-05
-0.000361653
7.90735e-05
-0.000409654
0.00010699
-0.000458936
0.000136393
-0.000510164
0.000166175
-0.000560582
0.000194307
-0.000601546
0.000217293
-0.000614239
0.000229615
-0.000562015
0.000223563
-0.000377993
0.000190314
4.77844e-05
0.000126804
0.00085665
4.77909e-05
0.00200935
0.00239216
-1.69637e-05
5.35983e-05
-3.28549e-05
7.68854e-06
-4.27733e-05
-6.57302e-05
-4.93687e-05
-0.000134589
-5.57319e-05
-0.000196434
-6.35262e-05
-0.000252228
-7.31972e-05
-0.000302912
-8.44071e-05
-0.000350441
-9.63374e-05
-0.000397723
-0.000107819
-0.000447453
-0.000117349
-0.000500632
-0.000123085
-0.000554844
-0.000122936
-0.000601693
-0.000114934
-0.000622239
-9.81202e-05
-0.000578813
-7.40362e-05
-0.000401973
-4.70507e-05
2.13686e-05
-2.51578e-05
0.000837135
-9.61271e-06
0.00200051
0.00239114
-1.69966e-05
7.08454e-05
-3.45999e-05
2.55291e-05
-5.03155e-05
-4.99196e-05
-6.91192e-05
-0.00011576
-9.48727e-05
-0.000170675
-0.000129038
-0.00021806
-0.000171297
-0.000260652
-0.000220325
-0.000301411
-0.000274245
-0.0003438
-0.000330661
-0.000391033
-0.000386365
-0.000444925
-0.000436828
-0.000504378
-0.000475682
-0.000562836
-0.000494524
-0.000603391
-0.000483662
-0.000589651
-0.000434649
-0.000450846
-0.00034666
-6.59315e-05
-0.000224662
0.000717778
-9.00709e-05
0.00187292
0.00230978
-9.00755e-06
8.0147e-05
-1.83807e-05
3.5181e-05
-3.42684e-05
-3.39199e-05
-6.35295e-05
-8.64678e-05
-0.00010922
-0.000124977
-0.000171291
-0.000155986
-0.000248154
-0.000183785
-0.000337802
-0.00021176
-0.0004383
-0.000243297
-0.000547647
-0.000281682
-0.000663039
-0.000329528
-0.000779636
-0.000387775
-0.000888869
-0.000453597
-0.000976433
-0.000515816
-0.00102061
-0.000545432
-0.000992634
-0.000478604
-0.000862102
-0.000195526
-0.000610343
0.000469189
-0.0002649
0.00153501
0.00205374
1.66689e-05
6.38182e-05
2.91403e-05
2.30344e-05
1.55316e-05
-2.0177e-05
-2.49677e-05
-4.59288e-05
-8.9137e-05
-6.07944e-05
-0.000173595
-7.15201e-05
-0.000275709
-8.16641e-05
-0.000394184
-9.32764e-05
-0.000529197
-0.000108276
-0.000682143
-0.000128726
-0.000854842
-0.000156819
-0.00104807
-0.00019454
-0.00125908
-0.00024257
-0.00147703
-0.000297832
-0.00167518
-0.000347195
-0.00179869
-0.000354705
-0.0017539
-0.000238814
-0.00141236
0.000131955
-0.000683477
0.000814779
0.00137939
6.42096e-05
8.76348e-05
6.76399e-05
2.17855e-05
-3.89664e-05
-0.000110451
-0.00019208
-0.000285321
-0.000393561
-0.000522251
-0.000679033
-0.000873534
-0.00111606
-0.00141384
-0.00176088
-0.00211498
-0.00235162
-0.0022139
-0.00138893
)
;

boundaryField
{
    leftWall
    {
        type            calculated;
        value           nonuniform List<scalar> 10(0 0 -6.77626e-21 0 2.71051e-20 0 0 0 -1.0842e-19 0);
    }
    rightWall
    {
        type            calculated;
        value           nonuniform List<scalar> 10(0 0 0 8.67362e-19 0 0 0 -1.73472e-18 0 0);
    }
    topWall
    {
        type            calculated;
        value           uniform 0;
    }
    bottomWall
    {
        type            calculated;
        value           uniform 0;
    }
    frontAndBackPlanes
    {
        type            empty;
    }
}


// ************************************************************************* //
