/*--------------------------------*- C++ -*----------------------------------*\
| =========                 |                                                 |
| \\      /  F ield         | OpenFOAM: The Open Source CFD Toolbox           |
|  \\    /   O peration     | Version:  2506                                  |
|   \\  /    A nd           | Website:  www.openfoam.com                      |
|    \\/     M anipulation  |                                                 |
\*---------------------------------------------------------------------------*/
FoamFile
{
    version     2.0;
    format      ascii;
    arch        "LSB;label=32;scalar=64";
    class       volScalarField;
    location    "4";
    object      T;
}
// * * * * * * * * * * * * * * * * * * * * * * * * * * * * * * * * * * * * * //

dimensions      [0 0 0 1 0 0 0];

internalField   nonuniform List<scalar> 
200
(
273.15
273.15
273.15
273.15
273.15
273.15
273.15
273.15
273.15
273.15
273.15
273.15
273.15
273.15
273.15
273.15
273.154
273.177
273.287
273.681
273.148
273.146
273.145
273.145
273.145
273.145
273.145
273.145
273.145
273.145
273.145
273.145
273.145
273.145
273.145
273.146
273.15
273.174
273.291
273.698
273.146
273.141
273.139
273.139
273.139
273.139
273.139
273.139
273.139
273.139
273.139
273.139
273.139
273.139
273.139
273.139
273.144
273.17
273.293
273.709
273.143
273.136
273.133
273.133
273.132
273.132
273.132
273.132
273.132
273.132
273.132
273.132
273.132
273.132
273.133
273.133
273.138
273.165
273.293
273.713
273.141
273.131
273.127
273.126
273.126
273.126
273.126
273.126
273.126
273.126
273.126
273.126
273.126
273.126
273.126
273.127
273.132
273.16
273.29
273.714
273.139
273.126
273.121
273.12
273.12
273.12
273.12
273.12
273.12
273.12
273.12
273.12
273.12
273.12
273.12
273.121
273.126
273.155
273.287
273.713
273.136
273.12
273.115
273.114
273.113
273.113
273.113
273.113
273.113
273.113
273.113
273.113
273.113
273.113
273.114
273.114
273.12
273.151
273.285
273.711
273.134
273.115
273.109
273.107
273.107
273.107
273.107
273.107
273.107
273.107
273.107
273.107
273.107
273.107
273.107
273.109
273.116
273.151
273.288
273.71
273.132
273.11
273.103
273.101
273.101
273.101
273.101
273.101
273.101
273.101
273.101
273.101
273.101
273.101
273.101
273.103
273.114
273.156
273.3
273.71
273.13
273.106
273.098
273.095
273.095
273.095
273.095
273.095
273.095
273.095
273.095
273.095
273.095
273.095
273.096
273.099
273.113
273.167
273.326
273.713
)
;

boundaryField
{
    leftWall
    {
        type            fixedValue;
        value           uniform 273.15;
    }
    rightWall
    {
        type            customNeumannDirichletCoupledBoundary;
        refValue        nonuniform List<scalar> 10(274.114 274.115 274.116 274.116 274.116 274.116 274.116 274.116 274.116 274.116);
        refGradient     uniform 0;
        valueFraction   uniform 1;
        source          uniform 0;
        value           nonuniform List<scalar> 10(274.114 274.115 274.116 274.116 274.116 274.116 274.116 274.116 274.116 274.116);
        kappaMethod     fluidThermo;
    }
    topWall
    {
        type            zeroGradient;
    }
    bottomWall
    {
        type            zeroGradient;
    }
    frontAndBackPlanes
    {
        type            empty;
    }
}


// ************************************************************************* //
