/*--------------------------------*- C++ -*----------------------------------*\
| =========                 |                                                 |
| \\      /  F ield         | OpenFOAM: The Open Source CFD Toolbox           |
|  \\    /   O peration     | Version:  2506                                  |
|   \\  /    A nd           | Website:  www.openfoam.com                      |
|    \\/     M anipulation  |                                                 |
\*---------------------------------------------------------------------------*/
FoamFile
{
    version     2.0;
    format      ascii;
    arch        "LSB;label=32;scalar=64";
    class       volScalarField;
    location    "61";
    object      p_rgh;
}
// * * * * * * * * * * * * * * * * * * * * * * * * * * * * * * * * * * * * * //

dimensions      [1 -1 -2 0 0 0 0];

internalField   nonuniform List<scalar> 
200
(
100000
100000
100000
100000
100000
100000
100000
100000
99999.9
99999.9
99999.9
99999.8
99999.8
99999.7
99999.7
99999.6
99999.4
99999.1
99998.8
99998.1
100000
100000
100000
100000
100000
99999.9
99999.9
99999.9
99999.9
99999.9
99999.8
99999.8
99999.8
99999.7
99999.7
99999.6
99999.5
99999.2
99998.5
99997
100000
100000
99999.9
99999.8
99999.8
99999.7
99999.7
99999.7
99999.7
99999.7
99999.7
99999.6
99999.6
99999.6
99999.6
99999.6
99999.4
99999
99997.8
99995.3
100000
100000
99999.7
99999.5
99999.4
99999.3
99999.3
99999.3
99999.3
99999.3
99999.3
99999.4
99999.4
99999.4
99999.5
99999.5
99999.3
99998.6
99996.8
99993.4
100000
99999.8
99999.3
99999
99998.8
99998.8
99998.8
99998.8
99998.8
99998.8
99998.9
99998.9
99999
99999.1
99999.2
99999.2
99998.9
99997.9
99995.6
99991.4
100001
99999.7
99998.9
99998.4
99998.1
99998
99998
99998
99998.1
99998.1
99998.1
99998.2
99998.3
99998.5
99998.7
99998.7
99998.2
99996.9
99994.1
99989.5
100001
99999.4
99998.2
99997.5
99997.2
99997.1
99997
99997
99997
99997
99997
99997.1
99997.2
99997.4
99997.5
99997.4
99996.8
99995.3
99992.4
99987.7
100001
99999.1
99997.4
99996.5
99996.1
99995.8
99995.7
99995.5
99995.4
99995.3
99995.2
99995.1
99995.2
99995.2
99995.2
99995.1
99994.5
99993.1
99990.4
99985.9
100002
99998.6
99996.6
99995.4
99994.7
99994.3
99993.9
99993.6
99993.3
99993
99992.8
99992.5
99992.3
99992.2
99992.1
99991.8
99991.3
99990.2
99988
99984.3
100002
99998.3
99996
99994.7
99993.9
99993.3
99992.8
99992.3
99991.8
99991.4
99991
99990.5
99990.1
99989.7
99989.2
99988.8
99988.2
99987.3
99985.7
99983
)
;

boundaryField
{
    leftWall
    {
        type            fixedFluxPressure;
        gradient        nonuniform List<scalar> 10(0.117904 0.897746 3.13417 7.4496 14.1921 23.6287 36.2571 53.7871 76.2074 96.6216);
        value           nonuniform List<scalar> 10(100000 100000 100000 100000 100001 100001 100002 100003 100004 100004);
    }
    rightWall
    {
        type            fixedFluxPressure;
        gradient        nonuniform List<scalar> 10(-17.0696 -47.2245 -70.4852 -87.97 -99.9535 -108.376 -111.962 -107.635 -92.1453 -68.775);
        value           nonuniform List<scalar> 10(99997.7 99995.8 99993.5 99991.2 99988.9 99986.8 99984.9 99983.2 99982 99981.3);
    }
    topWall
    {
        type            fixedFluxPressure;
        gradient        uniform 0;
        value           nonuniform List<scalar> 
20
(
100000
100000
100000
100000
100000
100000
100000
100000
99999.9
99999.9
99999.9
99999.8
99999.8
99999.7
99999.7
99999.6
99999.4
99999.1
99998.8
99998.1
)
;
    }
    bottomWall
    {
        type            fixedFluxPressure;
        gradient        uniform 0;
        value           nonuniform List<scalar> 
20
(
100002
99998.3
99996
99994.7
99993.9
99993.3
99992.8
99992.3
99991.8
99991.4
99991
99990.5
99990.1
99989.7
99989.2
99988.8
99988.2
99987.3
99985.7
99983
)
;
    }
    frontAndBackPlanes
    {
        type            empty;
    }
}


// ************************************************************************* //
