/*--------------------------------*- C++ -*----------------------------------*\
| =========                 |                                                 |
| \\      /  F ield         | OpenFOAM: The Open Source CFD Toolbox           |
|  \\    /   O peration     | Version:  2506                                  |
|   \\  /    A nd           | Website:  www.openfoam.com                      |
|    \\/     M anipulation  |                                                 |
\*---------------------------------------------------------------------------*/
FoamFile
{
    version     2.0;
    format      ascii;
    arch        "LSB;label=32;scalar=64";
    class       surfaceScalarField;
    location    "61";
    object      phi;
}
// * * * * * * * * * * * * * * * * * * * * * * * * * * * * * * * * * * * * * //

dimensions      [1 0 -1 0 0 0 0];

oriented        oriented;

internalField   nonuniform List<scalar> 
370
(
6.62469e-05
-0.000138215
0.000309401
-0.000243091
0.00056495
-0.000255455
0.000791025
-0.000225959
0.000975936
-0.000184784
0.00112656
-0.000150493
0.00125808
-0.000131374
0.00138759
-0.000129365
0.00153129
-0.000143554
0.00170364
-0.000172199
0.00191712
-0.000213314
0.00218117
-0.000263884
0.00249852
-0.000317179
0.00285729
-0.000358592
0.00321631
-0.000358839
0.00348001
-0.000263504
0.00344991
3.02788e-05
0.0029045
0.000545604
0.00160301
0.00130166
0.0016031
0.000220085
-0.000358259
0.000645408
-0.000668299
0.001111
-0.000720879
0.00153398
-0.000648744
0.00188938
-0.000539969
0.00218252
-0.000443415
0.00243172
-0.000380359
0.00265831
-0.000355733
0.00288139
-0.000366403
0.00311533
-0.000405915
0.00336812
-0.000465873
0.00363856
-0.000534085
0.00391095
-0.000589319
0.00414543
-0.000592814
0.00426453
-0.000477675
0.00414293
-0.000141648
0.00363182
0.000541641
0.00255574
0.00162193
0.00105138
0.00280624
0.0026546
0.00028126
-0.000639453
0.000782579
-0.00116943
0.00130977
-0.00124781
0.00177428
-0.00111294
0.00215281
-0.000918171
0.00245391
-0.000744178
0.00269729
-0.000623415
0.00290312
-0.000561227
0.00308722
-0.000550178
0.00325947
-0.000577825
0.00342278
-0.000628853
0.00357112
-0.000682079
0.00368483
-0.000702684
0.00372329
-0.000630928
0.00361785
-0.000371877
0.00327457
0.000201984
0.00261467
0.00120188
0.00163999
0.00259693
0.000577748
0.00386875
0.00323247
0.000297812
-0.000937174
0.000799015
-0.00167039
0.00129322
-0.00174166
0.00169923
-0.00151854
0.00200577
-0.00122428
0.00223013
-0.000968098
0.00239547
-0.000788323
0.00252111
-0.000686444
0.00262
-0.000648645
0.00269922
-0.000656622
0.00276072
-0.000689933
0.0028004
-0.000721326
0.00280436
-0.000706213
0.00274299
-0.000569117
0.00256702
-0.00019547
0.002216
0.00055344
0.00165814
0.00176015
0.00094331
0.00331213
0.000275431
0.00453693
0.00350804
0.000282637
-0.0012197
0.000714186
-0.00210163
0.00109514
-0.00212219
0.00136814
-0.00179107
0.00154244
-0.00139807
0.00164615
-0.0010713
0.00170466
-0.000846336
0.00173476
-0.000716058
0.00174587
-0.000659274
0.00174296
-0.000653227
0.00172824
-0.000674733
0.00170038
-0.000692974
0.00165114
-0.000656471
0.00156111
-0.000478578
0.00139758
-3.14371e-05
0.00112572
0.000825801
0.000745927
0.00214041
0.00033115
0.00372733
3.91663e-05
0.00482925
0.00354736
0.000224888
-0.00144446
0.000501227
-0.00237763
0.000679598
-0.00230008
0.000747991
-0.00185893
0.000742657
-0.00139219
0.000698873
-0.00102698
0.00063836
-0.000785295
0.000571331
-0.000648509
0.000502044
-0.000589473
0.000432712
-0.000583378
0.000364193
-0.000605695
0.000294132
-0.000622384
0.000214602
-0.000576401
0.000112525
-0.000375948
-2.29528e-05
0.000104611
-0.000178558
0.000981962
-0.00031404
0.00227642
-0.000350377
0.00376413
-0.000216558
0.00469577
0.00333093
9.61443e-05
-0.00154046
9.25917e-05
-0.0023737
-4.1843e-05
-0.00216513
-0.000248206
-0.00165201
-0.000470749
-0.00116909
-0.000679574
-0.000817613
-0.00086565
-0.000598684
-0.00102994
-0.000483688
-0.00117592
-0.000442971
-0.0013069
-0.00045188
-0.00142649
-0.000485575
-0.00153943
-0.000508916
-0.0016495
-0.00046579
-0.00175184
-0.000273046
-0.00181739
0.000170722
-0.00178389
0.000949007
-0.00157383
0.00206688
-0.00112806
0.0033188
-0.000492762
0.0040608
0.00283831
-0.000152015
-0.00138828
-0.000583662
-0.00194163
-0.00112608
-0.00162218
-0.00164374
-0.00113379
-0.00208169
-0.000730602
-0.00243483
-0.000463936
-0.00271862
-0.00031437
-0.00295253
-0.000249275
-0.00315347
-0.00024152
-0.00333438
-0.000270477
-0.00350359
-0.00031586
-0.00366207
-0.000349944
-0.00379648
-0.000330886
-0.00386879
-0.000200229
-0.003808
0.000110426
-0.00351688
0.000658388
-0.00290364
0.0014541
-0.00193985
0.00235542
-0.000784167
0.00290542
0.00205426
-0.000533682
-0.000854417
-0.00148095
-0.000993925
-0.00239059
-0.000712015
-0.00310027
-0.000423562
-0.00360709
-0.000223258
-0.00396051
-0.000110016
-0.00421533
-5.90755e-05
-0.00441639
-4.77466e-05
-0.00459606
-6.14004e-05
-0.00477536
-9.0738e-05
-0.00496376
-0.000127028
-0.0051547
-0.000158588
-0.00531723
-0.00016794
-0.00538697
-0.000130084
-0.00526785
-8.30074e-06
-0.00482626
0.000217184
-0.00394847
0.000576693
-0.00260874
0.00101601
-0.00103348
0.00133041
0.00102089
-0.000854216
-0.0018477
-0.00255919
-0.00298224
-0.003205
-0.00331456
-0.0033732
-0.00342053
-0.00348154
-0.0035719
-0.00369857
-0.00385682
-0.00402443
-0.00415421
-0.00416222
-0.00394475
-0.0033678
-0.00235155
-0.00102096
)
;

boundaryField
{
    leftWall
    {
        type            calculated;
        value           nonuniform List<scalar> 10(0 0 0 0 0 1.0842e-19 0 0 0 0);
    }
    rightWall
    {
        type            calculated;
        value           nonuniform List<scalar> 10(0 0 0 -4.33681e-19 0 0 0 0 0 0);
    }
    topWall
    {
        type            calculated;
        value           uniform 0;
    }
    bottomWall
    {
        type            calculated;
        value           uniform 0;
    }
    frontAndBackPlanes
    {
        type            empty;
    }
}


// ************************************************************************* //
