/*--------------------------------*- C++ -*----------------------------------*\
| =========                 |                                                 |
| \\      /  F ield         | OpenFOAM: The Open Source CFD Toolbox           |
|  \\    /   O peration     | Version:  2506                                  |
|   \\  /    A nd           | Website:  www.openfoam.com                      |
|    \\/     M anipulation  |                                                 |
\*---------------------------------------------------------------------------*/
FoamFile
{
    version     2.0;
    format      ascii;
    arch        "LSB;label=32;scalar=64";
    class       volScalarField;
    location    "61";
    object      T;
}
// * * * * * * * * * * * * * * * * * * * * * * * * * * * * * * * * * * * * * //

dimensions      [0 0 0 1 0 0 0];

internalField   nonuniform List<scalar> 
200
(
273.152
273.156
273.16
273.162
273.163
273.164
273.165
273.165
273.165
273.166
273.166
273.167
273.168
273.17
273.173
273.181
273.203
273.266
273.43
273.806
273.156
273.166
273.175
273.18
273.183
273.185
273.185
273.186
273.186
273.186
273.187
273.188
273.188
273.188
273.189
273.193
273.212
273.275
273.447
273.832
273.162
273.184
273.201
273.212
273.218
273.221
273.222
273.221
273.221
273.221
273.22
273.22
273.218
273.216
273.213
273.215
273.234
273.302
273.485
273.865
273.17
273.207
273.236
273.254
273.263
273.267
273.267
273.266
273.264
273.263
273.261
273.258
273.254
273.247
273.241
273.241
273.261
273.336
273.528
273.896
273.18
273.235
273.276
273.301
273.313
273.318
273.318
273.315
273.313
273.31
273.307
273.302
273.294
273.283
273.272
273.271
273.296
273.38
273.577
273.925
273.19
273.265
273.32
273.352
273.368
273.372
273.372
273.37
273.367
273.365
273.362
273.356
273.346
273.331
273.318
273.319
273.352
273.444
273.636
273.95
273.202
273.298
273.367
273.407
273.425
273.431
273.432
273.433
273.434
273.434
273.433
273.428
273.42
273.41
273.403
273.409
273.444
273.532
273.703
273.976
273.217
273.336
273.416
273.461
273.484
273.496
273.505
273.512
273.519
273.526
273.53
273.532
273.532
273.53
273.53
273.539
273.571
273.644
273.782
274.005
273.234
273.372
273.462
273.514
273.546
273.568
273.586
273.602
273.617
273.631
273.644
273.656
273.666
273.675
273.684
273.696
273.723
273.777
273.876
274.039
273.245
273.392
273.486
273.543
273.581
273.609
273.633
273.655
273.676
273.697
273.718
273.739
273.761
273.782
273.804
273.826
273.856
273.899
273.968
274.075
)
;

boundaryField
{
    leftWall
    {
        type            fixedValue;
        value           uniform 273.15;
    }
    rightWall
    {
        type            customNeumannDirichletCoupledBoundary;
        refValue        nonuniform List<scalar> 10(274.126 274.127 274.129 274.131 274.133 274.135 274.137 274.139 274.141 274.142);
        refGradient     uniform 0;
        valueFraction   uniform 1;
        source          uniform 0;
        value           nonuniform List<scalar> 10(274.126 274.127 274.129 274.131 274.133 274.135 274.137 274.139 274.141 274.142);
        kappaMethod     fluidThermo;
    }
    topWall
    {
        type            zeroGradient;
    }
    bottomWall
    {
        type            zeroGradient;
    }
    frontAndBackPlanes
    {
        type            empty;
    }
}


// ************************************************************************* //
