/*--------------------------------*- C++ -*----------------------------------*\
| =========                 |                                                 |
| \\      /  F ield         | OpenFOAM: The Open Source CFD Toolbox           |
|  \\    /   O peration     | Version:  2506                                  |
|   \\  /    A nd           | Website:  www.openfoam.com                      |
|    \\/     M anipulation  |                                                 |
\*---------------------------------------------------------------------------*/
FoamFile
{
    version     2.0;
    format      ascii;
    arch        "LSB;label=32;scalar=64";
    class       volVectorField;
    location    "61";
    object      U;
}
// * * * * * * * * * * * * * * * * * * * * * * * * * * * * * * * * * * * * * //

dimensions      [0 1 -1 0 0 0 0];

internalField   nonuniform List<vector> 
200
(
(-4.59398e-06 -0.000423738 0)
(0.000708305 -0.00062639 0)
(0.00178813 -0.000559259 0)
(0.002852 -0.000434067 0)
(0.00371535 -0.000314457 0)
(0.00440551 -0.000233105 0)
(0.00497994 -0.000203888 0)
(0.00550956 -0.000226939 0)
(0.00606546 -0.000298147 0)
(0.00671259 -0.000414952 0)
(0.00750831 -0.000577817 0)
(0.00850107 -0.000787555 0)
(0.00972234 -0.00103729 0)
(0.0111655 -0.00129644 0)
(0.0127384 -0.00148359 0)
(0.0141621 -0.00141745 0)
(0.0148096 -0.000727306 0)
(0.0137274 0.00118488 0)
(0.00991998 0.00445798 0)
(0.00301148 0.00636565 0)
(0.000231418 -0.00198239 0)
(0.0017339 -0.00361103 0)
(0.00365271 -0.0038544 0)
(0.00555547 -0.00344854 0)
(0.00719493 -0.00285593 0)
(0.0085387 -0.00234795 0)
(0.00965077 -0.00204599 0)
(0.0106229 -0.00198054 0)
(0.0115436 -0.00213813 0)
(0.0124851 -0.00248873 0)
(0.0134962 -0.00299375 0)
(0.0145952 -0.00359457 0)
(0.0157532 -0.00417935 0)
(0.0168641 -0.00452488 0)
(0.017696 -0.00421414 0)
(0.0178372 -0.00254333 0)
(0.0166428 0.00150699 0)
(0.0133504 0.00874285 0)
(0.00786881 0.0176425 0)
(0.00136891 0.0183698 0)
(0.000312663 -0.00411907 0)
(0.00216538 -0.00759408 0)
(0.00437014 -0.00817979 0)
(0.00648951 -0.00736618 0)
(0.00826444 -0.00613898 0)
(0.0096724 -0.00503691 0)
(0.010789 -0.00428947 0)
(0.0117075 -0.00394596 0)
(0.012507 -0.00396683 0)
(0.0132427 -0.0042749 0)
(0.0139431 -0.00477006 0)
(0.0146047 -0.00530957 0)
(0.0151792 -0.00565379 0)
(0.0155485 -0.00538183 0)
(0.0154893 -0.00379936 0)
(0.0146376 9.22873e-05 0)
(0.0125746 0.00732228 0)
(0.00909783 0.0179668 0)
(0.0046448 0.0285194 0)
(0.000581959 0.0251466 0)
(0.000341857 -0.00659018 0)
(0.00226529 -0.011923 0)
(0.0043976 -0.0126213 0)
(0.00631877 -0.0111798 0)
(0.00781432 -0.00916112 0)
(0.00890763 -0.00736584 0)
(0.00970046 -0.00610156 0)
(0.0102906 -0.00540635 0)
(0.0107477 -0.00519591 0)
(0.0111136 -0.00534154 0)
(0.0114073 -0.00569037 0)
(0.0116264 -0.00603488 0)
(0.0117376 -0.00603705 0)
(0.011656 -0.00512394 0)
(0.0112184 -0.00240731 0)
(0.0101527 0.00324415 0)
(0.00825543 0.0126425 0)
(0.00550234 0.0251759 0)
(0.00241132 0.0357713 0)
(0.000185753 0.0286481 0)
(0.000346456 -0.00907055 0)
(0.00210224 -0.0159529 0)
(0.00383783 -0.0164355 0)
(0.00522654 -0.0141596 0)
(0.00615553 -0.0112791 0)
(0.00671549 -0.00880801 0)
(0.00703352 -0.00707484 0)
(0.00720393 -0.00606696 0)
(0.00728123 -0.00564059 0)
(0.00729373 -0.00562213 0)
(0.00725593 -0.00582623 0)
(0.00717102 -0.00600743 0)
(0.00702194 -0.00576024 0)
(0.00675463 -0.00439826 0)
(0.00626002 -0.000892731 0)
(0.00535474 0.00593732 0)
(0.00397457 0.0166581 0)
(0.00222411 0.0300044 0)
(0.000566959 0.0398658 0)
(-0.000105139 0.0299517 0)
(0.000311159 -0.0112735 0)
(0.0015921 -0.0190915 0)
(0.00254922 -0.0189694 0)
(0.0030572 -0.0157472 0)
(0.00316813 -0.0120909 0)
(0.00304229 -0.00911482 0)
(0.00280787 -0.00708781 0)
(0.00253261 -0.00591131 0)
(0.00224379 -0.00538208 0)
(0.00195267 -0.00529826 0)
(0.00166528 -0.00545877 0)
(0.00137884 -0.0055904 0)
(0.00107178 -0.00523041 0)
(0.000700589 -0.0036084 0)
(0.000204941 0.000377416 0)
(-0.000431015 0.00784729 0)
(-0.00107961 0.0190414 0)
(-0.00148577 0.0321471 0)
(-0.00134311 0.0406915 0)
(-0.000356644 0.0292641 0)
(0.000202403 -0.0127354 0)
(0.000526605 -0.020473 0)
(0.000194679 -0.019376 0)
(-0.000569086 -0.015296 0)
(-0.00150023 -0.0111805 0)
(-0.00241818 -0.0080548 0)
(-0.00324776 -0.0060346 0)
(-0.00397821 -0.00491879 0)
(-0.00462298 -0.00446185 0)
(-0.00519792 -0.00444994 0)
(-0.00571831 -0.00466842 0)
(-0.00620422 -0.00481376 0)
(-0.00667981 -0.00438882 0)
(-0.00715106 -0.0026325 0)
(-0.00755801 0.00142252 0)
(-0.00767458 0.00860461 0)
(-0.00718581 0.0189635 0)
(-0.00579786 0.0306212 0)
(-0.00351953 0.0376055 0)
(-0.000665174 0.02634 0)
(-6.06072e-05 -0.01263 0)
(-0.00138711 -0.0188079 0)
(-0.00354354 -0.0165731 0)
(-0.00584167 -0.012189 0)
(-0.00786783 -0.00828498 0)
(-0.00951688 -0.00555572 0)
(-0.0108317 -0.00392775 0)
(-0.0118965 -0.00313225 0)
(-0.0127915 -0.00291775 0)
(-0.0135806 -0.00308066 0)
(-0.014311 -0.00341519 0)
(-0.0150081 -0.00363624 0)
(-0.0156561 -0.00330913 0)
(-0.0161584 -0.00182391 0)
(-0.0162742 0.00153059 0)
(-0.0155997 0.00733224 0)
(-0.0137076 0.0155827 0)
(-0.010332 0.0247562 0)
(-0.00580723 0.0301161 0)
(-0.00100233 0.0209745 0)
(-0.000607975 -0.0098412 0)
(-0.00417978 -0.0129893 0)
(-0.00819303 -0.0101837 0)
(-0.0116568 -0.0065621 0)
(-0.0141985 -0.00380492 0)
(-0.015955 -0.00212475 0)
(-0.0171816 -0.00128935 0)
(-0.0181003 -0.00102558 0)
(-0.0188739 -0.00112872 0)
(-0.019614 -0.00145376 0)
(-0.0203874 -0.00186747 0)
(-0.0212063 -0.00219443 0)
(-0.0220015 -0.00217541 0)
(-0.0225851 -0.00145329 0)
(-0.0226062 0.0004004 0)
(-0.0215122 0.00379913 0)
(-0.0187474 0.00884501 0)
(-0.0139932 0.0146798 0)
(-0.00775299 0.0184096 0)
(-0.00133434 0.0132314 0)
(-0.00153605 -0.00331108 0)
(-0.00577921 -0.00341298 0)
(-0.00937721 -0.00206034 0)
(-0.0117822 -0.000902703 0)
(-0.0130942 -0.000228866 0)
(-0.0137306 7.70478e-05 0)
(-0.0140366 0.000161988 0)
(-0.0142295 0.00012503 0)
(-0.0144401 2.03458e-05 0)
(-0.0147506 -0.00012592 0)
(-0.0152097 -0.000298433 0)
(-0.0158267 -0.000476351 0)
(-0.0165523 -0.000619772 0)
(-0.0172445 -0.000658929 0)
(-0.0176253 -0.000480007 0)
(-0.0172777 9.40857e-05 0)
(-0.0156318 0.00123539 0)
(-0.0122039 0.00289275 0)
(-0.00722001 0.00438785 0)
(-0.00174758 0.00376541 0)
)
;

boundaryField
{
    leftWall
    {
        type            fixedValue;
        value           uniform (0 0 0);
    }
    rightWall
    {
        type            fixedValue;
        value           uniform (0 0 0);
    }
    topWall
    {
        type            fixedValue;
        value           uniform (0 0 0);
    }
    bottomWall
    {
        type            fixedValue;
        value           uniform (0 0 0);
    }
    frontAndBackPlanes
    {
        type            empty;
    }
}


// ************************************************************************* //
