/*--------------------------------*- C++ -*----------------------------------*\
| =========                 |                                                 |
| \\      /  F ield         | OpenFOAM: The Open Source CFD Toolbox           |
|  \\    /   O peration     | Version:  2506                                  |
|   \\  /    A nd           | Website:  www.openfoam.com                      |
|    \\/     M anipulation  |                                                 |
\*---------------------------------------------------------------------------*/
FoamFile
{
    version     2.0;
    format      ascii;
    arch        "LSB;label=32;scalar=64";
    class       volVectorField;
    location    "136.6";
    object      U;
}
// * * * * * * * * * * * * * * * * * * * * * * * * * * * * * * * * * * * * * //

dimensions      [0 1 -1 0 0 0 0];

internalField   nonuniform List<vector> 
200
(
(0.000570137 -0.00137403 0)
(0.00277063 -0.00173685 0)
(0.00506173 -0.00126669 0)
(0.00685504 -0.00066826 0)
(0.00793217 -0.00021051 0)
(0.00844501 5.15219e-05 0)
(0.00862149 0.000144488 0)
(0.00866191 0.000117285 0)
(0.00871219 1.48624e-05 0)
(0.00886978 -0.000131865 0)
(0.00919582 -0.000308705 0)
(0.0097258 -0.000512562 0)
(0.0104754 -0.000740577 0)
(0.0114304 -0.000972485 0)
(0.0125048 -0.00113991 0)
(0.0134468 -0.00107263 0)
(0.0137121 -0.000425427 0)
(0.0124417 0.00129698 0)
(0.00879782 0.00413624 0)
(0.00262409 0.00557805 0)
(0.000580157 -0.00536451 0)
(0.00367381 -0.00822086 0)
(0.00701344 -0.00726828 0)
(0.00985159 -0.00508893 0)
(0.0118419 -0.00297975 0)
(0.0130643 -0.00145327 0)
(0.013751 -0.000598529 0)
(0.0141392 -0.000313857 0)
(0.0144155 -0.000440924 0)
(0.0147035 -0.00083218 0)
(0.0150696 -0.00137423 0)
(0.0155324 -0.00197741 0)
(0.0160603 -0.0025379 0)
(0.0165545 -0.00287197 0)
(0.0168133 -0.00262255 0)
(0.0164802 -0.00115761 0)
(0.0149899 0.00241602 0)
(0.0117455 0.00870416 0)
(0.00675681 0.0161727 0)
(0.00113709 0.0160563 0)
(0.000534816 -0.00933093 0)
(0.00339108 -0.0147985 0)
(0.0064072 -0.0135735 0)
(0.00897912 -0.0100079 0)
(0.0108206 -0.00638177 0)
(0.0120066 -0.00362698 0)
(0.0127305 -0.00194094 0)
(0.0131773 -0.00118221 0)
(0.0134819 -0.00109717 0)
(0.0137258 -0.0014333 0)
(0.0139452 -0.00197655 0)
(0.0141357 -0.002536 0)
(0.014249 -0.00288593 0)
(0.0141768 -0.00267431 0)
(0.013728 -0.00132159 0)
(0.0126016 0.00200832 0)
(0.0105337 0.00812462 0)
(0.0073936 0.017042 0)
(0.00361669 0.0255185 0)
(0.000405695 0.02158 0)
(0.00045895 -0.0128122 0)
(0.00276474 -0.0202999 0)
(0.0050082 -0.0186223 0)
(0.00678985 -0.013797 0)
(0.00797636 -0.00892885 0)
(0.00869624 -0.00523966 0)
(0.00912566 -0.00294975 0)
(0.00939519 -0.00183867 0)
(0.00957718 -0.00155601 0)
(0.00970213 -0.00176696 0)
(0.0097756 -0.00219198 0)
(0.00978456 -0.00257585 0)
(0.00969106 -0.00260786 0)
(0.00941614 -0.0018177 0)
(0.00881569 0.000500414 0)
(0.00773306 0.00518848 0)
(0.00604652 0.0128927 0)
(0.00380459 0.0230307 0)
(0.00147353 0.0311321 0)
(4.13162e-05 0.0239759 0)
(0.000369953 -0.0155605 0)
(0.0019718 -0.024183 0)
(0.00323229 -0.0217743 0)
(0.00401926 -0.0158497 0)
(0.00439182 -0.0101186 0)
(0.00453373 -0.00591159 0)
(0.0045904 -0.00335626 0)
(0.00462774 -0.0021087 0)
(0.00465628 -0.00173203 0)
(0.0046657 -0.00184948 0)
(0.00464453 -0.00216346 0)
(0.0045813 -0.00239577 0)
(0.00445264 -0.00218521 0)
(0.00420714 -0.000981933 0)
(0.00374826 0.00198747 0)
(0.00300542 0.00752412 0)
(0.00196145 0.0160631 0)
(0.000779873 0.0264945 0)
(-0.000138682 0.0336475 0)
(-0.000181402 0.0243617 0)
(0.000265544 -0.0174391 0)
(0.000992167 -0.0261604 0)
(0.00108592 -0.0227807 0)
(0.000769128 -0.0160315 0)
(0.000299793 -0.00990673 0)
(-0.000125412 -0.00562495 0)
(-0.000434783 -0.00313808 0)
(-0.000645614 -0.00196584 0)
(-0.000795491 -0.00162204 0)
(-0.00091555 -0.00173422 0)
(-0.00102366 -0.00201924 0)
(-0.0011328 -0.00219261 0)
(-0.00126326 -0.00185687 0)
(-0.00144629 -0.000414741 0)
(-0.00171458 0.00291255 0)
(-0.00203346 0.00882085 0)
(-0.00228458 0.0174669 0)
(-0.00222767 0.0273557 0)
(-0.00162491 0.0332575 0)
(-0.000363424 0.0231242 0)
(0.00012691 -0.0181268 0)
(-0.000345078 -0.0257731 0)
(-0.00168257 -0.0212855 0)
(-0.00320129 -0.0141897 0)
(-0.00451724 -0.00828648 0)
(-0.00550201 -0.00441635 0)
(-0.00618948 -0.00229071 0)
(-0.0066669 -0.00136518 0)
(-0.0070105 -0.00117276 0)
(-0.00727113 -0.00137642 0)
(-0.00748004 -0.00171453 0)
(-0.0076583 -0.00190302 0)
(-0.00781786 -0.00154279 0)
(-0.00794489 -7.12915e-05 0)
(-0.00796021 0.00318141 0)
(-0.00769869 0.00875393 0)
(-0.00692337 0.0166108 0)
(-0.00540418 0.0252167 0)
(-0.00317421 0.0298671 0)
(-0.000571569 0.0202772 0)
(-0.000215468 -0.0169851 0)
(-0.00244885 -0.0222064 0)
(-0.00543098 -0.0168914 0)
(-0.00817354 -0.0102388 0)
(-0.0102369 -0.00525616 0)
(-0.0116365 -0.00227158 0)
(-0.0125463 -0.000812606 0)
(-0.0131408 -0.000333416 0)
(-0.0135488 -0.000423813 0)
(-0.0138619 -0.000801014 0)
(-0.0141315 -0.00124578 0)
(-0.0143764 -0.00151821 0)
(-0.0145719 -0.00129101 0)
(-0.0146241 -0.000127672 0)
(-0.0143301 0.00246858 0)
(-0.0134163 0.00689994 0)
(-0.0115554 0.0130864 0)
(-0.00855883 0.0197743 0)
(-0.0047216 0.023299 0)
(-0.000789579 0.0157618 0)
(-0.000868815 -0.0128902 0)
(-0.00546943 -0.0146219 0)
(-0.0100125 -0.00948542 0)
(-0.0134134 -0.00451457 0)
(-0.0154615 -0.0013566 0)
(-0.0165325 0.000190916 0)
(-0.0170492 0.000694967 0)
(-0.0173007 0.00061911 0)
(-0.0174683 0.000253433 0)
(-0.0176527 -0.000233696 0)
(-0.0179023 -0.000719236 0)
(-0.0182147 -0.00107018 0)
(-0.0185194 -0.00110349 0)
(-0.0186588 -0.000568872 0)
(-0.0183528 0.000838565 0)
(-0.0172056 0.00341444 0)
(-0.0147943 0.00716801 0)
(-0.0108988 0.0113892 0)
(-0.00594576 0.0138758 0)
(-0.000997928 0.00970047 0)
(-0.00207175 -0.00441735 0)
(-0.00728845 -0.00377795 0)
(-0.0109335 -0.00167423 0)
(-0.0127765 -0.000222629 0)
(-0.0133102 0.000442926 0)
(-0.0131862 0.000614139 0)
(-0.0128318 0.000551521 0)
(-0.0124874 0.000399894 0)
(-0.0122682 0.000222639 0)
(-0.0122205 4.05724e-05 0)
(-0.0123554 -0.000136685 0)
(-0.0126522 -0.000295852 0)
(-0.0130522 -0.000411698 0)
(-0.0134318 -0.000437096 0)
(-0.0135752 -0.000291599 0)
(-0.0131613 0.000150627 0)
(-0.01177 0.000988748 0)
(-0.00907114 0.00216659 0)
(-0.00527969 0.0031876 0)
(-0.00124577 0.0026738 0)
)
;

boundaryField
{
    leftWall
    {
        type            fixedValue;
        value           uniform (0 0 0);
    }
    rightWall
    {
        type            fixedValue;
        value           uniform (0 0 0);
    }
    topWall
    {
        type            fixedValue;
        value           uniform (0 0 0);
    }
    bottomWall
    {
        type            fixedValue;
        value           uniform (0 0 0);
    }
    frontAndBackPlanes
    {
        type            empty;
    }
}


// ************************************************************************* //
