/*--------------------------------*- C++ -*----------------------------------*\
| =========                 |                                                 |
| \\      /  F ield         | OpenFOAM: The Open Source CFD Toolbox           |
|  \\    /   O peration     | Version:  2506                                  |
|   \\  /    A nd           | Website:  www.openfoam.com                      |
|    \\/     M anipulation  |                                                 |
\*---------------------------------------------------------------------------*/
FoamFile
{
    version     2.0;
    format      ascii;
    arch        "LSB;label=32;scalar=64";
    class       volVectorField;
    location    "95.6";
    object      U;
}
// * * * * * * * * * * * * * * * * * * * * * * * * * * * * * * * * * * * * * //

dimensions      [0 1 -1 0 0 0 0];

internalField   nonuniform List<vector> 
200
(
(0.000309498 -0.000923998 0)
(0.00182479 -0.00121134 0)
(0.00354392 -0.000923886 0)
(0.00498143 -0.000539901 0)
(0.00593111 -0.000237765 0)
(0.0064921 -6.26594e-05 0)
(0.00681998 -5.23516e-06 0)
(0.0070598 -3.70169e-05 0)
(0.0073251 -0.000130123 0)
(0.00769731 -0.000266057 0)
(0.00823306 -0.000437228 0)
(0.0089715 -0.000643164 0)
(0.00993531 -0.000881126 0)
(0.0111166 -0.00112884 0)
(0.0124332 -0.00131427 0)
(0.0136281 -0.00126189 0)
(0.014118 -0.00060732 0)
(0.012991 0.00120498 0)
(0.00931614 0.00427056 0)
(0.0028122 0.00596374 0)
(0.000430222 -0.00381565 0)
(0.00283165 -0.00610412 0)
(0.00554101 -0.00566414 0)
(0.00794653 -0.0042548 0)
(0.00974743 -0.00281282 0)
(0.0109807 -0.00174742 0)
(0.0118115 -0.00115851 0)
(0.0124173 -0.000996228 0)
(0.0129434 -0.00115998 0)
(0.0134907 -0.00155045 0)
(0.0141174 -0.00208688 0)
(0.0148415 -0.00269707 0)
(0.015634 -0.00328116 0)
(0.0163965 -0.00364717 0)
(0.01692 -0.00341699 0)
(0.0168303 -0.00192036 0)
(0.0155264 0.0018209 0)
(0.0123305 0.00853896 0)
(0.00719041 0.0167318 0)
(0.0012301 0.017113 0)
(0.000446823 -0.00702041 0)
(0.00290338 -0.0115879 0)
(0.00559089 -0.0111144 0)
(0.00797043 -0.00870797 0)
(0.00976774 -0.006102 0)
(0.0110205 -0.0040648 0)
(0.0118771 -0.00280482 0)
(0.0124876 -0.00225523 0)
(0.012966 -0.00224641 0)
(0.0133844 -0.00259568 0)
(0.0137762 -0.00313742 0)
(0.0141382 -0.00370689 0)
(0.0144239 -0.00408349 0)
(0.0145245 -0.00389883 0)
(0.0142412 -0.00253049 0)
(0.0132486 0.000947719 0)
(0.0112173 0.00747329 0)
(0.00798566 0.0171364 0)
(0.0039809 0.0266199 0)
(0.000467241 0.0230982 0)
(0.000419011 -0.0101278 0)
(0.00260867 -0.0166658 0)
(0.0048425 -0.0159552 0)
(0.00670333 -0.012521 0)
(0.00802233 -0.00883054 0)
(0.00888721 -0.00593556 0)
(0.00944718 -0.00409221 0)
(0.0098231 -0.00318225 0)
(0.0100894 -0.00295891 0)
(0.0102832 -0.003168 0)
(0.0104169 -0.00358277 0)
(0.010483 -0.00397483 0)
(0.0104469 -0.00403509 0)
(0.0102287 -0.00326465 0)
(0.00968478 -0.000887242 0)
(0.00859755 0.00408869 0)
(0.00683387 0.0124085 0)
(0.00440787 0.0235427 0)
(0.00180082 0.0328135 0)
(8.8734e-05 0.0258746 0)
(0.000370459 -0.0128308 0)
(0.00208533 -0.020707 0)
(0.00358479 -0.0194554 0)
(0.00464665 -0.0149966 0)
(0.00525941 -0.0104116 0)
(0.00557244 -0.00690739 0)
(0.00572721 -0.00469655 0)
(0.00580442 -0.00356658 0)
(0.00583471 -0.00319272 0)
(0.00582449 -0.00327532 0)
(0.00577343 -0.00356298 0)
(0.00567717 -0.00379915 0)
(0.00551644 -0.00361777 0)
(0.00523853 -0.00242393 0)
(0.00473464 0.000658758 0)
(0.00390717 0.00658929 0)
(0.00271842 0.0159099 0)
(0.0013099 0.0275197 0)
(9.73826e-05 0.0359074 0)
(-0.000169073 0.0265783 0)
(0.000291716 -0.0149086 0)
(0.00128888 -0.0232556 0)
(0.00177288 -0.0211532 0)
(0.00181258 -0.0157888 0)
(0.00158982 -0.0106314 0)
(0.00129091 -0.00686422 0)
(0.00101338 -0.00456232 0)
(0.000777581 -0.00339945 0)
(0.0005701 -0.00299624 0)
(0.000375548 -0.00304307 0)
(0.000185857 -0.00329131 0)
(-6.77994e-06 -0.00347011 0)
(-0.000222097 -0.00316684 0)
(-0.000496552 -0.00172095 0)
(-0.000879229 0.00177363 0)
(-0.00134682 0.00817379 0)
(-0.00178141 0.0177343 0)
(-0.00193316 0.0289004 0)
(-0.00152737 0.0359792 0)
(-0.000366373 0.02553 0)
(0.000160374 -0.0159651 0)
(3.78772e-05 -0.0236592 0)
(-0.000871506 -0.0204734 0)
(-0.00207232 -0.0145304 0)
(-0.00322081 -0.00930988 0)
(-0.00416415 -0.00572869 0)
(-0.00489155 -0.00365005 0)
(-0.00545316 -0.00265859 0)
(-0.00590344 -0.00236824 0)
(-0.00628052 -0.00248988 0)
(-0.00660866 -0.00278495 0)
(-0.00690786 -0.00297086 0)
(-0.0071953 -0.00262004 0)
(-0.00746579 -0.00109764 0)
(-0.00765055 0.00238378 0)
(-0.0075645 0.00848814 0)
(-0.00694203 0.0172563 0)
(-0.00551902 0.0270689 0)
(-0.003303 0.032742 0)
(-0.000609276 0.0226408 0)
(-0.000150752 -0.0152691 0)
(-0.00201395 -0.020877 0)
(-0.00466124 -0.0167377 0)
(-0.00721488 -0.0109447 0)
(-0.00924494 -0.00637405 0)
(-0.0107192 -0.00349402 0)
(-0.0117632 -0.00197343 0)
(-0.01252 -0.00137189 0)
(-0.0131014 -0.00133898 0)
(-0.0135857 -0.00162575 0)
(-0.0140229 -0.00202479 0)
(-0.0144344 -0.00228475 0)
(-0.0148009 -0.00204254 0)
(-0.0150317 -0.000797145 0)
(-0.0149127 0.00203401 0)
(-0.0141233 0.00693441 0)
(-0.0122959 0.0138836 0)
(-0.0092013 0.0215529 0)
(-0.00513348 0.0258688 0)
(-0.000873068 0.0177978 0)
(-0.00076551 -0.011699 0)
(-0.0049616 -0.0139924 0)
(-0.00929588 -0.00974668 0)
(-0.0127155 -0.00528695 0)
(-0.0149475 -0.00228118 0)
(-0.0162679 -0.000682129 0)
(-0.0170383 -5.18287e-05 0)
(-0.0175341 4.17685e-06 0)
(-0.017921 -0.0002564 0)
(-0.0183046 -0.000675399 0)
(-0.018743 -0.00112874 0)
(-0.0192377 -0.00147157 0)
(-0.0197222 -0.00149515 0)
(-0.020032 -0.000909202 0)
(-0.0198646 0.000641418 0)
(-0.0187657 0.00350517 0)
(-0.0162564 0.00774029 0)
(-0.0120683 0.0125961 0)
(-0.00664376 0.0156066 0)
(-0.00113033 0.0110856 0)
(-0.00186369 -0.00398547 0)
(-0.00670302 -0.00363883 0)
(-0.0103276 -0.00182201 0)
(-0.0123805 -0.000480824 0)
(-0.0132037 0.000191253 0)
(-0.0133729 0.000420829 0)
(-0.0132823 0.000412638 0)
(-0.0131467 0.000302036 0)
(-0.0130922 0.000151113 0)
(-0.0131791 -1.84557e-05 0)
(-0.0134294 -0.00019298 0)
(-0.0138394 -0.000357897 0)
(-0.014356 -0.000484154 0)
(-0.0148513 -0.000516887 0)
(-0.0150875 -0.000362865 0)
(-0.0147097 0.000124743 0)
(-0.0132389 0.00107445 0)
(-0.0102786 0.00243702 0)
(-0.00603804 0.00364947 0)
(-0.00144419 0.00310379 0)
)
;

boundaryField
{
    leftWall
    {
        type            fixedValue;
        value           uniform (0 0 0);
    }
    rightWall
    {
        type            fixedValue;
        value           uniform (0 0 0);
    }
    topWall
    {
        type            fixedValue;
        value           uniform (0 0 0);
    }
    bottomWall
    {
        type            fixedValue;
        value           uniform (0 0 0);
    }
    frontAndBackPlanes
    {
        type            empty;
    }
}


// ************************************************************************* //
