/*--------------------------------*- C++ -*----------------------------------*\
| =========                 |                                                 |
| \\      /  F ield         | OpenFOAM: The Open Source CFD Toolbox           |
|  \\    /   O peration     | Version:  2506                                  |
|   \\  /    A nd           | Website:  www.openfoam.com                      |
|    \\/     M anipulation  |                                                 |
\*---------------------------------------------------------------------------*/
FoamFile
{
    version     2.0;
    format      ascii;
    arch        "LSB;label=32;scalar=64";
    class       volScalarField;
    location    "53.6";
    object      p_rgh;
}
// * * * * * * * * * * * * * * * * * * * * * * * * * * * * * * * * * * * * * //

dimensions      [1 -1 -2 0 0 0 0];

internalField   nonuniform List<scalar> 
200
(
100000
100000
100000
100000
100000
100000
100000
100000
100000
100000
99999.9
99999.9
99999.9
99999.8
99999.7
99999.6
99999.4
99999.2
99998.8
99998.2
100000
100000
100000
100000
100000
100000
100000
100000
99999.9
99999.9
99999.9
99999.9
99999.8
99999.8
99999.8
99999.7
99999.6
99999.3
99998.5
99997
100000
100000
100000
99999.9
99999.9
99999.8
99999.8
99999.8
99999.8
99999.8
99999.8
99999.7
99999.7
99999.7
99999.7
99999.7
99999.5
99999.1
99997.9
99995.3
100000
100000
99999.8
99999.6
99999.5
99999.5
99999.5
99999.5
99999.5
99999.5
99999.5
99999.5
99999.5
99999.6
99999.6
99999.6
99999.4
99998.7
99996.9
99993.4
100000
99999.9
99999.5
99999.2
99999.1
99999
99999
99999
99999
99999
99999.1
99999.1
99999.2
99999.3
99999.4
99999.4
99999.1
99998.1
99995.7
99991.4
100001
99999.7
99999.1
99998.6
99998.4
99998.3
99998.3
99998.3
99998.3
99998.3
99998.4
99998.5
99998.6
99998.8
99999
99999
99998.4
99997.1
99994.1
99989.4
100001
99999.5
99998.5
99997.8
99997.5
99997.3
99997.3
99997.3
99997.2
99997.2
99997.2
99997.3
99997.5
99997.7
99997.8
99997.6
99997
99995.5
99992.4
99987.4
100001
99999.2
99997.7
99996.8
99996.3
99996.1
99995.9
99995.8
99995.6
99995.5
99995.4
99995.4
99995.4
99995.4
99995.5
99995.3
99994.7
99993.2
99990.3
99985.6
100002
99998.8
99996.9
99995.7
99995
99994.5
99994.1
99993.7
99993.4
99993.1
99992.9
99992.6
99992.4
99992.3
99992.1
99991.9
99991.4
99990.2
99987.9
99983.9
100002
99998.5
99996.3
99995
99994.1
99993.4
99992.9
99992.4
99991.9
99991.4
99990.9
99990.5
99990
99989.6
99989.2
99988.7
99988.1
99987.1
99985.4
99982.6
)
;

boundaryField
{
    leftWall
    {
        type            fixedFluxPressure;
        gradient        nonuniform List<scalar> 10(0.0532235 0.521739 2.0551 5.30613 10.7497 18.7258 29.6768 44.9606 64.8137 82.683);
        value           nonuniform List<scalar> 10(100000 100000 100000 100000 100001 100001 100002 100002 100003 100004);
    }
    rightWall
    {
        type            fixedFluxPressure;
        gradient        nonuniform List<scalar> 10(-17.3406 -48.2449 -72.4976 -91.119 -104.185 -113.261 -117.561 -113.721 -98.081 -73.5501);
        value           nonuniform List<scalar> 10(99997.7 99995.8 99993.5 99991.1 99988.8 99986.5 99984.5 99982.8 99981.5 99980.7);
    }
    topWall
    {
        type            fixedFluxPressure;
        gradient        uniform 0;
        value           nonuniform List<scalar> 
20
(
100000
100000
100000
100000
100000
100000
100000
100000
100000
100000
99999.9
99999.9
99999.9
99999.8
99999.7
99999.6
99999.4
99999.2
99998.8
99998.2
)
;
    }
    bottomWall
    {
        type            fixedFluxPressure;
        gradient        uniform 0;
        value           nonuniform List<scalar> 
20
(
100002
99998.5
99996.3
99995
99994.1
99993.4
99992.9
99992.4
99991.9
99991.4
99990.9
99990.5
99990
99989.6
99989.2
99988.7
99988.1
99987.1
99985.4
99982.6
)
;
    }
    frontAndBackPlanes
    {
        type            empty;
    }
}


// ************************************************************************* //
