/*--------------------------------*- C++ -*----------------------------------*\
| =========                 |                                                 |
| \\      /  F ield         | OpenFOAM: The Open Source CFD Toolbox           |
|  \\    /   O peration     | Version:  2506                                  |
|   \\  /    A nd           | Website:  www.openfoam.com                      |
|    \\/     M anipulation  |                                                 |
\*---------------------------------------------------------------------------*/
FoamFile
{
    version     2.0;
    format      ascii;
    arch        "LSB;label=32;scalar=64";
    class       volScalarField;
    location    "10";
    object      p_rgh;
}
// * * * * * * * * * * * * * * * * * * * * * * * * * * * * * * * * * * * * * //

dimensions      [1 -1 -2 0 0 0 0];

internalField   nonuniform List<scalar> 
200
(
100000
100000
100000
100000
100000
100000
100000
100000
100000
100000
100000
100000
99999.9
99999.9
99999.8
99999.6
99999.5
99999.2
99998.8
99998.2
100000
100000
100000
100000
100000
100000
100000
100000
100000
100000
100000
100000
100000
99999.9
99999.8
99999.7
99999.6
99999.3
99998.6
99997
100000
100000
100000
100000
100000
100000
100000
100000
100000
100000
100000
100000
100000
100000
99999.9
99999.8
99999.6
99999.1
99997.9
99995.2
100000
100000
100000
100000
100000
100000
100000
100000
100000
100000
100000
100000
100000
100000
100000
99999.9
99999.6
99998.8
99997
99993.2
100000
100000
100000
100000
100000
100000
100000
100000
100000
100000
100000
100000
100000
100000
100000
100000
99999.6
99998.5
99995.9
99991.2
100000
100000
100000
100000
100000
100000
100000
100000
100000
100000
100000
100000
100000
100000
100000
100000
99999.4
99998
99994.7
99989
100000
100000
100001
100001
100001
100001
100001
100001
100001
100001
100001
100001
100001
100000
100000
100000
99999.1
99997.2
99993.4
99987
100000
100000
100001
100001
100001
100001
100001
100001
100001
100001
100001
100001
100001
100001
100000
99999.5
99998.3
99996
99991.9
99985
100000
100000
100001
100001
100001
100001
100001
100001
100001
100001
100001
100001
100001
100000
99999.5
99998.3
99996.6
99994.1
99990
99983.2
100000
100001
100001
100001
100001
100001
100001
100001
100001
100001
100001
100001
100001
100000
99999
99997.2
99994.9
99992
99988
99981.7
)
;

boundaryField
{
    leftWall
    {
        type            fixedFluxPressure;
        gradient        nonuniform List<scalar> 10(-0.0154689 -0.182568 -0.639523 -1.39117 -2.44541 -3.81651 -5.50272 -7.4569 -9.52219 -11.4735);
        value           nonuniform List<scalar> 10(100000 100000 100000 100000 100000 100000 100000 99999.9 99999.8 99999.7);
    }
    rightWall
    {
        type            fixedFluxPressure;
        gradient        nonuniform List<scalar> 10(-18.4378 -51.3584 -78.2535 -101.341 -122.265 -141.107 -160.581 -178.081 -188.73 -190.439);
        value           nonuniform List<scalar> 10(99997.7 99995.7 99993.3 99990.7 99988.1 99985.5 99983 99980.6 99978.5 99977);
    }
    topWall
    {
        type            fixedFluxPressure;
        gradient        uniform 0;
        value           nonuniform List<scalar> 
20
(
100000
100000
100000
100000
100000
100000
100000
100000
100000
100000
100000
100000
99999.9
99999.9
99999.8
99999.6
99999.5
99999.2
99998.8
99998.2
)
;
    }
    bottomWall
    {
        type            fixedFluxPressure;
        gradient        uniform 0;
        value           nonuniform List<scalar> 
20
(
100000
100001
100001
100001
100001
100001
100001
100001
100001
100001
100001
100001
100001
100000
99999
99997.2
99994.9
99992
99988
99981.7
)
;
    }
    frontAndBackPlanes
    {
        type            empty;
    }
}


// ************************************************************************* //
