/*--------------------------------*- C++ -*----------------------------------*\
| =========                 |                                                 |
| \\      /  F ield         | OpenFOAM: The Open Source CFD Toolbox           |
|  \\    /   O peration     | Version:  2506                                  |
|   \\  /    A nd           | Website:  www.openfoam.com                      |
|    \\/     M anipulation  |                                                 |
\*---------------------------------------------------------------------------*/
FoamFile
{
    version     2.0;
    format      ascii;
    arch        "LSB;label=32;scalar=64";
    class       volScalarField;
    location    "38.2";
    object      p;
}
// * * * * * * * * * * * * * * * * * * * * * * * * * * * * * * * * * * * * * //

dimensions      [1 -1 -2 0 0 0 0];

internalField   nonuniform List<scalar> 
200
(
100000
100000
100000
100000
100000
100000
100000
100000
100000
99999.9
99999.9
99999.9
99999.8
99999.8
99999.7
99999.6
99999.4
99999.3
99999.1
99999
99733.3
99733.3
99733.4
99733.4
99733.3
99733.3
99733.3
99733.3
99733.3
99733.3
99733.2
99733.2
99733.2
99733.1
99733.1
99733
99733
99732.9
99732.9
99732.9
99466.7
99466.7
99466.7
99466.7
99466.7
99466.7
99466.7
99466.6
99466.6
99466.6
99466.6
99466.6
99466.5
99466.5
99466.5
99466.5
99466.5
99466.4
99466.5
99466.5
99200.1
99200.1
99200.1
99200.1
99200.1
99200.1
99200
99200
99200
99200
99200
99200
99199.9
99199.9
99199.9
99199.9
99199.9
99199.9
99199.9
99200
98933.6
98933.6
98933.6
98933.5
98933.5
98933.5
98933.5
98933.5
98933.4
98933.4
98933.4
98933.4
98933.4
98933.4
98933.4
98933.4
98933.4
98933.4
98933.4
98933.4
98667.1
98667.1
98667.1
98667.1
98667.1
98667
98667
98667
98667
98667
98667
98666.9
98666.9
98666.9
98666.9
98666.9
98666.9
98666.9
98666.9
98667
98400.8
98400.8
98400.8
98400.7
98400.7
98400.7
98400.7
98400.7
98400.7
98400.6
98400.6
98400.6
98400.6
98400.6
98400.6
98400.6
98400.6
98400.7
98400.7
98400.7
98134.6
98134.6
98134.6
98134.5
98134.5
98134.5
98134.5
98134.5
98134.5
98134.5
98134.5
98134.5
98134.5
98134.5
98134.6
98134.6
98134.7
98134.8
98134.8
98134.8
97868.5
97868.5
97868.4
97868.5
97868.5
97868.5
97868.6
97868.6
97868.6
97868.7
97868.7
97868.8
97868.8
97868.9
97869
97869.1
97869.2
97869.3
97869.4
97869.4
97602.2
97602.2
97602.3
97602.4
97602.5
97602.7
97602.8
97602.9
97603
97603.1
97603.2
97603.3
97603.5
97603.6
97603.8
97603.9
97604.2
97604.3
97604.5
97604.5
)
;

boundaryField
{
    leftWall
    {
        type            zeroGradient;
    }
    rightWall
    {
        type            zeroGradient;
    }
    topWall
    {
        type            zeroGradient;
    }
    bottomWall
    {
        type            zeroGradient;
    }
    frontAndBackPlanes
    {
        type            empty;
    }
}


// ************************************************************************* //
