/*--------------------------------*- C++ -*----------------------------------*\
| =========                 |                                                 |
| \\      /  F ield         | OpenFOAM: The Open Source CFD Toolbox           |
|  \\    /   O peration     | Version:  2506                                  |
|   \\  /    A nd           | Website:  www.openfoam.com                      |
|    \\/     M anipulation  |                                                 |
\*---------------------------------------------------------------------------*/
FoamFile
{
    version     2.0;
    format      ascii;
    arch        "LSB;label=32;scalar=64";
    class       surfaceScalarField;
    location    "4.4";
    object      phi;
}
// * * * * * * * * * * * * * * * * * * * * * * * * * * * * * * * * * * * * * //

dimensions      [1 0 -1 0 0 0 0];

oriented        oriented;

internalField   nonuniform List<scalar> 
370
(
-0.000141632
-4.01979e-05
-9.20129e-05
-4.96383e-05
-4.48095e-05
-4.72293e-05
8.24867e-06
-5.30865e-05
6.78348e-05
-5.96151e-05
0.000135587
-6.77819e-05
0.000213216
-7.76586e-05
0.000302725
-8.95393e-05
0.000406973
-0.000104278
0.000530066
-0.000123124
0.000677517
-0.000147483
0.000856034
-0.000178549
0.00107252
-0.00021652
0.00133093
-0.000258442
0.00162507
-0.000294154
0.00192213
-0.000297016
0.00212702
-0.000204509
0.00202538
0.000103165
0.00131506
0.000714328
0.00131997
-2.75046e-05
-1.26636e-05
-3.15804e-05
-4.55351e-05
-5.9567e-06
-7.28465e-05
4.09815e-05
-0.000100029
0.000108522
-0.000127164
0.000195263
-0.000154532
0.000300099
-0.000182504
0.00042257
-0.000212021
0.000563082
-0.0002448
0.000722838
-0.000282891
0.000903259
-0.000327915
0.00110466
-0.000379965
0.00132379
-0.000435659
0.00154954
-0.000484201
0.00175498
-0.000499588
0.00188424
-0.000426195
0.00183799
-0.00015782
0.0014774
0.000465469
0.000700877
0.0014954
0.00202642
-1.56818e-05
3.08638e-06
-2.0518e-05
-4.06286e-05
-2.45872e-06
-9.08766e-05
3.6035e-05
-0.000138517
9.29615e-05
-0.000184091
0.000166769
-0.000228341
0.000255934
-0.000271673
0.000359074
-0.000315164
0.000474988
-0.000360718
0.000602412
-0.000410319
0.000739311
-0.000464817
0.000881628
-0.000522287
0.00102135
-0.00057538
0.00114367
-0.000606528
0.00122333
-0.000579233
0.00122108
-0.00042385
0.00108512
-2.13399e-05
0.000772523
0.000780074
0.000322622
0.00195058
0.00235533
-1.2735e-05
1.59265e-05
-1.73742e-05
-3.58791e-05
-6.68353e-06
-0.00010152
1.83108e-05
-0.000163498
5.57629e-05
-0.000221541
0.000104196
-0.000276775
0.000162313
-0.000329791
0.000228872
-0.000381725
0.000302593
-0.00043444
0.000381903
-0.000489631
0.000464459
-0.000547374
0.000546368
-0.000604197
0.000621135
-0.000650148
0.000678373
-0.000663764
0.00070259
-0.000603433
0.000673123
-0.00039427
0.000568663
8.36909e-05
0.000380125
0.000970848
0.000146631
0.00218991
0.00250876
-1.46313e-05
3.06999e-05
-2.52901e-05
-2.50706e-05
-2.52372e-05
-0.000101507
-1.61848e-05
-0.000172532
-5.62852e-07
-0.000237159
1.9966e-05
-0.000297303
4.44295e-05
-0.000354254
7.22737e-05
-0.000409569
0.000103139
-0.000465305
0.000136652
-0.000523144
0.000172158
-0.000582879
0.000208335
-0.000640373
0.00024266
-0.000684473
0.000270708
-0.000691809
0.000285436
-0.000618141
0.000277048
-0.000385762
0.000234944
0.000126412
0.000155419
0.00105277
5.78241e-05
0.00229368
0.00257371
-1.80743e-05
4.8953e-05
-3.62959e-05
-6.66028e-06
-4.8049e-05
-8.96712e-05
-5.60394e-05
-0.000164518
-6.34739e-05
-0.000229719
-7.21885e-05
-0.000288587
-8.27127e-05
-0.000343729
-9.46874e-05
-0.000397592
-0.000107165
-0.000452825
-0.000118754
-0.000511554
-0.000127656
-0.000573975
-0.000131718
-0.00063631
-0.000128623
-0.000687566
-0.000116464
-0.000703964
-9.49081e-05
-0.000639674
-6.68897e-05
-0.000413643
-3.90516e-05
9.92474e-05
-1.93629e-05
0.00103562
-7.50826e-06
0.00228829
0.00257356
-1.90682e-05
6.82365e-05
-4.08956e-05
1.53939e-05
-6.16829e-05
-6.8784e-05
-8.57e-05
-0.000140471
-0.000116801
-0.00019861
-0.000156605
-0.00024878
-0.000204949
-0.000295382
-0.000260557
-0.000341982
-0.000321414
-0.000391965
-0.000384762
-0.000448202
-0.000446777
-0.000511957
-0.000502047
-0.000581036
-0.000543108
-0.000646502
-0.00056044
-0.000686624
-0.000543672
-0.000656405
-0.000484802
-0.000472324
-0.000383031
-1.68772e-06
-0.000247686
0.000903135
-9.88946e-05
0.00214627
0.00248216
-1.15794e-05
8.00684e-05
-2.66836e-05
3.07642e-05
-5.00504e-05
-4.52994e-05
-8.77461e-05
-0.00010274
-0.000142514
-0.000143832
-0.000214455
-0.000176835
-0.000302308
-0.000207525
-0.000404366
-0.00023992
-0.000518797
-0.000277529
-0.000643398
-0.000323596
-0.000774761
-0.000380588
-0.000906888
-0.000448903
-0.00102932
-0.000524065
-0.00112501
-0.00059091
-0.0011689
-0.000612455
-0.00112901
-0.000511907
-0.000973623
-0.000155899
-0.00068387
0.000616867
-0.000293448
0.00176321
0.00219635
1.52032e-05
6.51579e-05
2.28649e-05
2.34132e-05
1.77637e-06
-2.407e-05
-4.83504e-05
-5.2568e-05
-0.000123488
-6.86789e-05
-0.00022006
-8.02534e-05
-0.000335914
-9.16627e-05
-0.000470482
-0.000105343
-0.000624619
-0.000123383
-0.000800224
-0.000147979
-0.000999332
-0.000181468
-0.00122238
-0.000225839
-0.00146522
-0.000281209
-0.00171352
-0.000342572
-0.00193366
-0.00039217
-0.00205981
-0.000385182
-0.00198616
-0.000227636
-0.00156871
0.000204207
-0.000743645
0.000946632
0.00146064
6.54951e-05
8.92816e-05
6.54001e-05
1.29118e-05
-5.57232e-05
-0.000135941
-0.000227568
-0.000332877
-0.000456224
-0.000604166
-0.000785597
-0.0010114
-0.00129256
-0.00163506
-0.002027
-0.00241131
-0.00263618
-0.00242557
-0.00146899
)
;

boundaryField
{
    leftWall
    {
        type            calculated;
        value           nonuniform List<scalar> 10(0 0 -6.77626e-21 -1.35525e-20 0 0 0 5.42101e-20 0 0);
    }
    rightWall
    {
        type            calculated;
        value           nonuniform List<scalar> 10(0 0 0 -8.67362e-19 0 0 0 1.73472e-18 0 0);
    }
    topWall
    {
        type            calculated;
        value           uniform 0;
    }
    bottomWall
    {
        type            calculated;
        value           uniform 0;
    }
    frontAndBackPlanes
    {
        type            empty;
    }
}


// ************************************************************************* //
