/*--------------------------------*- C++ -*----------------------------------*\
| =========                 |                                                 |
| \\      /  F ield         | OpenFOAM: The Open Source CFD Toolbox           |
|  \\    /   O peration     | Version:  2506                                  |
|   \\  /    A nd           | Website:  www.openfoam.com                      |
|    \\/     M anipulation  |                                                 |
\*---------------------------------------------------------------------------*/
FoamFile
{
    version     2.0;
    format      ascii;
    arch        "LSB;label=32;scalar=64";
    class       volScalarField;
    location    "79.2";
    object      p_rgh;
}
// * * * * * * * * * * * * * * * * * * * * * * * * * * * * * * * * * * * * * //

dimensions      [1 -1 -2 0 0 0 0];

internalField   nonuniform List<scalar> 
200
(
100000
100000
100000
100000
100000
99999.9
99999.9
99999.9
99999.8
99999.8
99999.8
99999.7
99999.7
99999.6
99999.5
99999.4
99999.3
99999
99998.6
99998
100000
100000
100000
99999.9
99999.9
99999.8
99999.8
99999.8
99999.7
99999.7
99999.7
99999.7
99999.6
99999.6
99999.5
99999.5
99999.3
99999.1
99998.4
99996.9
100000
100000
99999.8
99999.6
99999.6
99999.5
99999.5
99999.5
99999.5
99999.5
99999.4
99999.4
99999.4
99999.4
99999.4
99999.4
99999.2
99998.8
99997.7
99995.3
100000
99999.9
99999.5
99999.2
99999.1
99999
99999
99999
99999
99999
99999.1
99999.1
99999.1
99999.1
99999.2
99999.2
99999
99998.3
99996.7
99993.5
100001
99999.8
99999.1
99998.6
99998.4
99998.4
99998.4
99998.4
99998.4
99998.5
99998.5
99998.5
99998.6
99998.7
99998.9
99998.9
99998.6
99997.7
99995.5
99991.6
100001
99999.6
99998.5
99997.9
99997.6
99997.6
99997.6
99997.6
99997.7
99997.7
99997.7
99997.8
99997.9
99998.1
99998.3
99998.3
99997.8
99996.6
99994
99989.8
100002
99999.3
99997.8
99997
99996.7
99996.6
99996.6
99996.6
99996.6
99996.6
99996.6
99996.7
99996.8
99996.9
99997
99996.9
99996.4
99995.1
99992.4
99988.1
100002
99998.9
99997
99996
99995.6
99995.4
99995.3
99995.2
99995
99994.9
99994.9
99994.8
99994.9
99994.9
99994.9
99994.8
99994.3
99993
99990.5
99986.5
100002
99998.5
99996.1
99994.9
99994.3
99993.9
99993.6
99993.3
99993.1
99992.8
99992.6
99992.4
99992.3
99992.1
99992
99991.8
99991.3
99990.3
99988.3
99985.1
100003
99998.2
99995.6
99994.3
99993.5
99993
99992.6
99992.2
99991.8
99991.4
99991
99990.7
99990.3
99989.9
99989.5
99989.1
99988.6
99987.7
99986.2
99983.9
)
;

boundaryField
{
    leftWall
    {
        type            fixedFluxPressure;
        gradient        nonuniform List<scalar> 10(0.333826 1.96378 5.7862 12.2146 21.3709 33.4728 49.1955 70.9857 98.0512 122.974);
        value           nonuniform List<scalar> 10(100000 100000 100000 100001 100001 100002 100003 100004 100005 100006);
    }
    rightWall
    {
        type            fixedFluxPressure;
        gradient        nonuniform List<scalar> 10(-16.2534 -44.5684 -65.7778 -81.1284 -91.2113 -98.3921 -100.758 -95.7558 -80.8616 -59.8463);
        value           nonuniform List<scalar> 10(99997.6 99995.8 99993.6 99991.5 99989.4 99987.4 99985.6 99984.1 99983 99982.4);
    }
    topWall
    {
        type            fixedFluxPressure;
        gradient        uniform 0;
        value           nonuniform List<scalar> 
20
(
100000
100000
100000
100000
100000
99999.9
99999.9
99999.9
99999.8
99999.8
99999.8
99999.7
99999.7
99999.6
99999.5
99999.4
99999.3
99999
99998.6
99998
)
;
    }
    bottomWall
    {
        type            fixedFluxPressure;
        gradient        uniform 0;
        value           nonuniform List<scalar> 
20
(
100003
99998.2
99995.6
99994.3
99993.5
99993
99992.6
99992.2
99991.8
99991.4
99991
99990.7
99990.3
99989.9
99989.5
99989.1
99988.6
99987.7
99986.2
99983.9
)
;
    }
    frontAndBackPlanes
    {
        type            empty;
    }
}


// ************************************************************************* //
