/*--------------------------------*- C++ -*----------------------------------*\
| =========                 |                                                 |
| \\      /  F ield         | OpenFOAM: The Open Source CFD Toolbox           |
|  \\    /   O peration     | Version:  2506                                  |
|   \\  /    A nd           | Website:  www.openfoam.com                      |
|    \\/     M anipulation  |                                                 |
\*---------------------------------------------------------------------------*/
FoamFile
{
    version     2.0;
    format      ascii;
    arch        "LSB;label=32;scalar=64";
    class       volScalarField;
    location    "31.6";
    object      p_rgh;
}
// * * * * * * * * * * * * * * * * * * * * * * * * * * * * * * * * * * * * * //

dimensions      [1 -1 -2 0 0 0 0];

internalField   nonuniform List<scalar> 
200
(
100000
100000
100000
100000
100000
100000
100000
100000
100000
100000
100000
99999.9
99999.9
99999.8
99999.7
99999.6
99999.5
99999.2
99998.8
99998.2
100000
100000
100000
100000
100000
100000
100000
100000
100000
100000
100000
100000
99999.9
99999.9
99999.8
99999.8
99999.6
99999.3
99998.6
99997
100000
100000
100000
100000
100000
100000
100000
100000
100000
100000
100000
100000
99999.9
99999.9
99999.9
99999.8
99999.7
99999.2
99998
99995.3
100000
100000
100000
100000
100000
100000
100000
100000
99999.9
99999.9
99999.9
99999.9
99999.9
99999.9
99999.9
99999.8
99999.6
99998.9
99997.1
99993.3
100000
100000
100000
100000
100000
99999.9
99999.8
99999.7
99999.7
99999.7
99999.7
99999.7
99999.8
99999.9
99999.9
99999.8
99999.4
99998.4
99995.8
99991.2
100000
100000
100000
100000
99999.8
99999.5
99999.4
99999.2
99999.2
99999.2
99999.3
99999.4
99999.5
99999.6
99999.7
99999.5
99999
99997.5
99994.3
99988.9
100001
100000
100000
99999.8
99999.3
99998.8
99998.5
99998.3
99998.3
99998.3
99998.4
99998.6
99998.8
99998.9
99998.8
99998.5
99997.7
99995.9
99992.4
99986.8
100001
100001
100000
99999.3
99998.4
99997.7
99997.2
99996.9
99996.7
99996.7
99996.7
99996.7
99996.7
99996.8
99996.7
99996.3
99995.4
99993.6
99990.2
99984.7
100001
100001
99999.8
99998.6
99997.3
99996.2
99995.3
99994.7
99994.2
99993.9
99993.6
99993.4
99993.2
99993.1
99993
99992.6
99991.9
99990.3
99987.5
99982.8
100001
100001
99999.9
99998.5
99996.9
99995.5
99994.3
99993.3
99992.4
99991.7
99991.1
99990.5
99990
99989.6
99989.1
99988.7
99988
99986.8
99984.7
99981.2
)
;

boundaryField
{
    leftWall
    {
        type            fixedFluxPressure;
        gradient        nonuniform List<scalar> 10(-0.0252326 -0.0767133 -0.130709 -0.158984 -0.123955 0.0593462 0.551834 1.65487 3.32263 2.96219);
        value           nonuniform List<scalar> 10(100000 100000 100000 100000 100000 100000 100001 100001 100001 100001);
    }
    rightWall
    {
        type            fixedFluxPressure;
        gradient        nonuniform List<scalar> 10(-17.7785 -50.6288 -78.1491 -100.721 -117.548 -128.208 -134.846 -133.215 -118.23 -90.7351);
        value           nonuniform List<scalar> 10(99997.7 99995.8 99993.4 99990.8 99988.2 99985.7 99983.4 99981.4 99979.9 99979);
    }
    topWall
    {
        type            fixedFluxPressure;
        gradient        uniform 0;
        value           nonuniform List<scalar> 
20
(
100000
100000
100000
100000
100000
100000
100000
100000
100000
100000
100000
99999.9
99999.9
99999.8
99999.7
99999.6
99999.5
99999.2
99998.8
99998.2
)
;
    }
    bottomWall
    {
        type            fixedFluxPressure;
        gradient        uniform 0;
        value           nonuniform List<scalar> 
20
(
100001
100001
99999.9
99998.5
99996.9
99995.5
99994.3
99993.3
99992.4
99991.7
99991.1
99990.5
99990
99989.6
99989.1
99988.7
99988
99986.8
99984.7
99981.2
)
;
    }
    frontAndBackPlanes
    {
        type            empty;
    }
}


// ************************************************************************* //
