/*--------------------------------*- C++ -*----------------------------------*\
| =========                 |                                                 |
| \\      /  F ield         | OpenFOAM: The Open Source CFD Toolbox           |
|  \\    /   O peration     | Version:  2506                                  |
|   \\  /    A nd           | Website:  www.openfoam.com                      |
|    \\/     M anipulation  |                                                 |
\*---------------------------------------------------------------------------*/
FoamFile
{
    version     2.0;
    format      ascii;
    arch        "LSB;label=32;scalar=64";
    class       volVectorField;
    location    "23.4";
    object      U;
}
// * * * * * * * * * * * * * * * * * * * * * * * * * * * * * * * * * * * * * //

dimensions      [0 1 -1 0 0 0 0];

internalField   nonuniform List<vector> 
200
(
(-0.000251986 -8.35582e-05 0)
(-0.000198753 -0.000193093 0)
(0.000362635 -0.000296369 0)
(0.00125473 -0.000439049 0)
(0.0023715 -0.000563812 0)
(0.00368476 -0.000650271 0)
(0.00512108 -0.000699292 0)
(0.00660771 -0.000718999 0)
(0.00808679 -0.000722983 0)
(0.00952048 -0.000728453 0)
(0.0108922 -0.000753246 0)
(0.0122031 -0.000812207 0)
(0.0134621 -0.000911991 0)
(0.0146641 -0.00103993 0)
(0.0157455 -0.00113869 0)
(0.0164898 -0.00104698 0)
(0.0164312 -0.000395084 0)
(0.0147226 0.00140765 0)
(0.0104166 0.00460022 0)
(0.00310547 0.0065323 0)
(1.39788e-05 -0.000466113 0)
(0.000560365 -0.00152957 0)
(0.00176748 -0.00262822 0)
(0.00352134 -0.00364911 0)
(0.00569819 -0.00446211 0)
(0.0081666 -0.00501458 0)
(0.0107871 -0.00530081 0)
(0.0134254 -0.00534981 0)
(0.0159648 -0.00521478 0)
(0.0183107 -0.0049592 0)
(0.0203881 -0.00463946 0)
(0.0221299 -0.00428424 0)
(0.0234566 -0.00386754 0)
(0.0242485 -0.00326583 0)
(0.0243075 -0.00218328 0)
(0.0233069 -3.27759e-05 0)
(0.0207158 0.00409935 0)
(0.0159666 0.0110229 0)
(0.00915915 0.0194612 0)
(0.00156966 0.0195679 0)
(8.68804e-05 -0.00122378 0)
(0.000984829 -0.00376968 0)
(0.00261719 -0.00617661 0)
(0.00484722 -0.00822126 0)
(0.00748709 -0.00975819 0)
(0.0103605 -0.0107172 0)
(0.0132973 -0.0110964 0)
(0.0161396 -0.0109518 0)
(0.0187528 -0.0103782 0)
(0.0210304 -0.00948048 0)
(0.0228873 -0.00833679 0)
(0.0242434 -0.00696037 0)
(0.0249997 -0.00525649 0)
(0.0250105 -0.00296975 0)
(0.024042 0.000386893 0)
(0.0218025 0.00552709 0)
(0.0180325 0.0132169 0)
(0.0126762 0.0235867 0)
(0.00641284 0.0333176 0)
(0.000843716 0.02812 0)
(0.00011243 -0.00234751 0)
(0.00117432 -0.00665328 0)
(0.0029776 -0.0103935 0)
(0.00533479 -0.0133854 0)
(0.00801842 -0.0154915 0)
(0.010826 -0.0166445 0)
(0.0135702 -0.0168642 0)
(0.016087 -0.0162552 0)
(0.0182513 -0.0149792 0)
(0.019982 -0.013204 0)
(0.0212322 -0.0110427 0)
(0.0219647 -0.00849427 0)
(0.022123 -0.00539112 0)
(0.0216009 -0.00135729 0)
(0.020177 0.00419565 0)
(0.0177019 0.0119155 0)
(0.0140415 0.0223191 0)
(0.00931682 0.0347563 0)
(0.00428755 0.0441833 0)
(0.000452922 0.0337043 0)
(0.000127106 -0.00358289 0)
(0.00116915 -0.00964401 0)
(0.00284091 -0.014594 0)
(0.00494066 -0.0183446 0)
(0.00723884 -0.0207891 0)
(0.00953186 -0.0218767 0)
(0.0116346 -0.0216679 0)
(0.0133989 -0.0203499 0)
(0.014737 -0.0181937 0)
(0.0156276 -0.0154677 0)
(0.0160966 -0.0123396 0)
(0.0161821 -0.00879374 0)
(0.0158944 -0.00457412 0)
(0.0151438 0.000828165 0)
(0.0138048 0.00804148 0)
(0.0117651 0.0176586 0)
(0.00895832 0.0298988 0)
(0.00555481 0.0433958 0)
(0.00220831 0.051821 0)
(0.000125082 0.0369745 0)
(0.000112973 -0.00469875 0)
(0.000864732 -0.0121787 0)
(0.00198037 -0.0179966 0)
(0.0033024 -0.0221969 0)
(0.00465468 -0.024701 0)
(0.00587024 -0.0254701 0)
(0.00679986 -0.0246218 0)
(0.00734624 -0.0224677 0)
(0.00749496 -0.0194372 0)
(0.00731255 -0.0159325 0)
(0.00691103 -0.0121797 0)
(0.00639785 -0.00812298 0)
(0.0058294 -0.00337711 0)
(0.00513164 0.00272505 0)
(0.0042658 0.0108778 0)
(0.00316354 0.0215915 0)
(0.00184625 0.0347749 0)
(0.000505452 0.0484469 0)
(-0.000404031 0.0554896 0)
(-0.000254498 0.037746 0)
(4.20192e-05 -0.00529288 0)
(0.000107964 -0.0133675 0)
(9.7261e-05 -0.019442 0)
(-3.1223e-05 -0.0236528 0)
(-0.000332865 -0.025905 0)
(-0.000883934 -0.0261496 0)
(-0.00173591 -0.0245795 0)
(-0.00287883 -0.0216733 0)
(-0.00421999 -0.0180518 0)
(-0.00560728 -0.0142399 0)
(-0.00687968 -0.0104663 0)
(-0.00791441 -0.00656734 0)
(-0.00864577 -0.00200388 0)
(-0.0090679 0.0039866 0)
(-0.00910095 0.0120854 0)
(-0.00870389 0.0226771 0)
(-0.00774843 0.0353929 0)
(-0.00607106 0.047951 0)
(-0.00367316 0.0534425 0)
(-0.000723846 0.0353417 0)
(-0.000112449 -0.00480928 0)
(-0.00113368 -0.0120934 0)
(-0.00282821 -0.0175156 0)
(-0.00506058 -0.0211367 0)
(-0.00767673 -0.0228019 0)
(-0.0105614 -0.0224631 0)
(-0.0135893 -0.02041 0)
(-0.0166042 -0.0172651 0)
(-0.0194304 -0.0137516 0)
(-0.0219044 -0.0104006 0)
(-0.0238991 -0.00736383 0)
(-0.0253236 -0.00438271 0)
(-0.0260889 -0.000879185 0)
(-0.0260189 0.00386594 0)
(-0.0249252 0.0104898 0)
(-0.0226063 0.019313 0)
(-0.0188401 0.0299143 0)
(-0.0135854 0.0402137 0)
(-0.00739181 0.0443971 0)
(-0.00126541 0.0290806 0)
(-0.000262572 -0.00296292 0)
(-0.00225723 -0.00777847 0)
(-0.00557795 -0.01151 0)
(-0.00988445 -0.0139687 0)
(-0.0147531 -0.0149173 0)
(-0.0197834 -0.0143102 0)
(-0.0246049 -0.0124564 0)
(-0.0289234 -0.00995288 0)
(-0.0325624 -0.00743168 0)
(-0.0354644 -0.00530711 0)
(-0.0376427 -0.00365673 0)
(-0.0391049 -0.00224203 0)
(-0.0397716 -0.000602925 0)
(-0.0393894 0.001835 0)
(-0.0376256 0.00563761 0)
(-0.0340499 0.0111133 0)
(-0.0282502 0.0180096 0)
(-0.020181 0.0249466 0)
(-0.0107712 0.0281401 0)
(-0.00180352 0.0188645 0)
(-0.000196932 -0.000569319 0)
(-0.00173099 -0.00160455 0)
(-0.00466457 -0.0024631 0)
(-0.00863059 -0.00303445 0)
(-0.0131416 -0.00320897 0)
(-0.0176685 -0.00295494 0)
(-0.0217334 -0.00237628 0)
(-0.0250308 -0.00167654 0)
(-0.027486 -0.00106148 0)
(-0.0292129 -0.000658555 0)
(-0.0304079 -0.000491039 0)
(-0.031238 -0.00049237 0)
(-0.0317514 -0.000529963 0)
(-0.0318167 -0.000414772 0)
(-0.0310914 0.000103055 0)
(-0.0290239 0.00123743 0)
(-0.0249825 0.00306621 0)
(-0.0186096 0.005338 0)
(-0.0105515 0.00700971 0)
(-0.00248521 0.00547285 0)
)
;

boundaryField
{
    leftWall
    {
        type            fixedValue;
        value           uniform (0 0 0);
    }
    rightWall
    {
        type            fixedValue;
        value           uniform (0 0 0);
    }
    topWall
    {
        type            fixedValue;
        value           uniform (0 0 0);
    }
    bottomWall
    {
        type            fixedValue;
        value           uniform (0 0 0);
    }
    frontAndBackPlanes
    {
        type            empty;
    }
}


// ************************************************************************* //
