/*--------------------------------*- C++ -*----------------------------------*\
| =========                 |                                                 |
| \\      /  F ield         | OpenFOAM: The Open Source CFD Toolbox           |
|  \\    /   O peration     | Version:  2506                                  |
|   \\  /    A nd           | Website:  www.openfoam.com                      |
|    \\/     M anipulation  |                                                 |
\*---------------------------------------------------------------------------*/
FoamFile
{
    version     2.0;
    format      ascii;
    arch        "LSB;label=32;scalar=64";
    class       surfaceScalarField;
    location    "55.6";
    object      phi;
}
// * * * * * * * * * * * * * * * * * * * * * * * * * * * * * * * * * * * * * //

dimensions      [1 0 -1 0 0 0 0];

oriented        oriented;

internalField   nonuniform List<scalar> 
370
(
4.01496e-05
-0.000116969
0.000253812
-0.00021361
0.000488466
-0.000234575
0.0007061
-0.000217537
0.000892666
-0.000186458
0.00105115
-0.000158375
0.00119343
-0.000142154
0.00133454
-0.000140988
0.00148985
-0.000155182
0.00167382
-0.00018384
0.00189929
-0.000225329
0.00217593
-0.000276497
0.00250615
-0.000330069
0.00287697
-0.000370662
0.00324557
-0.000368439
0.00351473
-0.000269005
0.00348461
3.02845e-05
0.00293332
0.000551451
0.00161936
0.0013141
0.00161945
0.000192506
-0.000309438
0.000580323
-0.000601323
0.00101866
-0.000672756
0.0014298
-0.000628496
0.00178674
-0.000543201
0.00209045
-0.000461892
0.00235523
-0.000406728
0.00259964
-0.000385188
0.00284138
-0.000396717
0.00309443
-0.000436675
0.00336674
-0.000497412
0.00365685
-0.000566375
0.0039481
-0.000621081
0.0041988
-0.000621125
0.00432901
-0.000498403
0.00421091
-0.000150657
0.00369393
0.000547503
0.00260117
0.00164445
0.00107156
0.00284392
0.00269112
0.000259398
-0.00056877
0.000733217
-0.00107496
0.00124314
-0.00118242
0.00170317
-0.00108823
0.00208732
-0.000927024
0.00240034
-0.000774591
0.00265895
-0.000665007
0.00288147
-0.000607382
0.00308298
-0.000597897
0.00327317
-0.000626537
0.00345493
-0.000678837
0.00362179
-0.000732884
0.00375291
-0.000751852
0.00380559
-0.000673448
0.00370832
-0.000400774
0.00336416
0.000193846
0.00269172
0.00122028
0.00169289
0.00264358
0.000599752
0.00393732
0.003291
0.000283985
-0.000852662
0.000772026
-0.00156274
0.0012627
-0.00167272
0.00167378
-0.00149888
0.00199026
-0.00124306
0.00222637
-0.00101026
0.00240375
-0.000841944
0.00254138
-0.000744573
0.0026525
-0.000708585
0.00274461
-0.000718213
0.00281979
-0.000753578
0.00287349
-0.00078613
0.00289063
-0.000768539
0.00283962
-0.000621971
0.00266832
-0.000229016
0.0023128
0.000549807
0.00173879
0.00179471
0.000996788
0.00338597
0.000296707
0.00463772
0.00358786
0.000277386
-0.00112993
0.00071023
-0.00199526
0.00110051
-0.00206255
0.00138612
-0.00178398
0.00157193
-0.00142834
0.00168439
-0.0011222
0.00174933
-0.00090636
0.00178479
-0.000779523
0.0018014
-0.00072469
0.00180483
-0.000721129
0.00179737
-0.000745595
0.00177719
-0.000765406
0.00173508
-0.000725887
0.00165031
-0.000536648
0.00148863
-6.67812e-05
0.00121128
0.000827685
0.000815747
0.00219074
0.000375864
0.0038263
5.54426e-05
0.0049585
0.00364346
0.000227596
-0.00135739
0.000518008
-0.0022853
0.000715622
-0.00225964
0.000800074
-0.00186786
0.000803967
-0.00143165
0.000763321
-0.00108098
0.000702343
-0.00084482
0.000633614
-0.000710237
0.000562835
-0.000653352
0.0004927
-0.000650428
0.000423921
-0.000676235
0.000353722
-0.000694611
0.000273737
-0.000645289
0.000170361
-0.000432649
3.12471e-05
7.29623e-05
-0.000131512
0.000991052
-0.000277956
0.00233774
-0.000328644
0.00387748
-0.000209194
0.00483941
0.00343441
0.000106425
-0.00146365
0.000126653
-0.0023051
1.50488e-05
-0.00214747
-0.000177361
-0.00167484
-0.000396421
-0.00121198
-0.000609178
-0.000867638
-0.000803043
-0.000650376
-0.000976555
-0.000536146
-0.00113207
-0.000497258
-0.00127266
-0.000509247
-0.00140208
-0.000546212
-0.00152515
-0.000570928
-0.0016455
-0.000524314
-0.00175782
-0.000319687
-0.00183237
0.00014816
-0.00180389
0.000963186
-0.00159355
0.00212798
-0.00114289
0.00342731
-0.000499642
0.00419653
0.00293492
-0.00013537
-0.00132809
-0.000538704
-0.0019013
-0.00106098
-0.0016246
-0.00157286
-0.00116235
-0.0020161
-0.000768148
-0.00238141
-0.000501751
-0.00268093
-0.00035028
-0.00293228
-0.000284234
-0.00315163
-0.000277341
-0.00335171
-0.000308596
-0.00354075
-0.000356607
-0.00371918
-0.000391927
-0.00387245
-0.000370475
-0.00396026
-0.000231299
-0.00390798
9.64656e-05
-0.00361425
0.000670012
-0.0029854
0.00149966
-0.00199439
0.00243676
-0.000806104
0.00300858
0.00212895
-0.000509644
-0.000818238
-0.00142989
-0.000980552
-0.00233087
-0.000723034
-0.00304835
-0.000444268
-0.00357189
-0.000244043
-0.00394557
-0.000127538
-0.00422172
-7.36051e-05
-0.00444458
-6.08701e-05
-0.00464675
-7.468e-05
-0.00484966
-0.0001052
-0.00506272
-0.000143063
-0.00527842
-0.000175756
-0.00546365
-0.000184777
-0.00555048
-0.000144017
-0.00543688
-1.66725e-05
-0.00498682
0.000220398
-0.00408201
0.000595275
-0.00269756
0.00105268
-0.0010688
0.0013801
0.00106027
-0.000818004
-0.00179804
-0.00252048
-0.00296416
-0.00320767
-0.00333471
-0.00340786
-0.0034683
-0.00354256
-0.00364736
-0.00379005
-0.00396543
-0.00414986
-0.00429353
-0.00430988
-0.00408917
-0.0034936
-0.00244065
-0.00106036
)
;

boundaryField
{
    leftWall
    {
        type            calculated;
        value           nonuniform List<scalar> 10(0 0 0 0 -5.42101e-20 0 0 -2.1684e-19 0 4.33681e-19);
    }
    rightWall
    {
        type            calculated;
        value           nonuniform List<scalar> 10(0 0 0 0 0 0 0 0 0 -4.33681e-19);
    }
    topWall
    {
        type            calculated;
        value           uniform 0;
    }
    bottomWall
    {
        type            calculated;
        value           uniform 0;
    }
    frontAndBackPlanes
    {
        type            empty;
    }
}


// ************************************************************************* //
