/*--------------------------------*- C++ -*----------------------------------*\
| =========                 |                                                 |
| \\      /  F ield         | OpenFOAM: The Open Source CFD Toolbox           |
|  \\    /   O peration     | Version:  2506                                  |
|   \\  /    A nd           | Website:  www.openfoam.com                      |
|    \\/     M anipulation  |                                                 |
\*---------------------------------------------------------------------------*/
FoamFile
{
    version     2.0;
    format      ascii;
    arch        "LSB;label=32;scalar=64";
    class       surfaceScalarField;
    location    "88.8";
    object      phi;
}
// * * * * * * * * * * * * * * * * * * * * * * * * * * * * * * * * * * * * * //

dimensions      [1 0 -1 0 0 0 0];

oriented        oriented;

internalField   nonuniform List<scalar> 
370
(
0.000200647
-0.000251918
0.000592566
-0.000391837
0.000951795
-0.000359111
0.00121954
-0.000267598
0.00139596
-0.000176266
0.00150691
-0.000110775
0.00158409
-7.69902e-05
0.00165562
-7.13439e-05
0.00174327
-8.745e-05
0.00186282
-0.000119345
0.00202557
-0.00016255
0.00223902
-0.000213226
0.0025049
-0.000265662
0.00281252
-0.000307397
0.00312436
-0.000311603
0.00335017
-0.000225581
0.00330417
4.62476e-05
0.00276814
0.000536267
0.00151784
0.00125051
0.00151796
0.000344291
-0.000596166
0.000944363
-0.000991793
0.00154081
-0.000955389
0.00202585
-0.000752447
0.00238183
-0.000532037
0.00263254
-0.000361265
0.00281478
-0.000259015
0.00296378
-0.000220112
0.00310691
-0.00023035
0.00326221
-0.000274416
0.00343843
-0.000338537
0.00363434
-0.000408888
0.00383502
-0.000466099
0.00400385
-0.000475972
0.00406984
-0.00037734
0.00391787
-7.3355e-05
0.0034066
0.000557781
0.00238021
0.00156292
0.000970299
0.00266064
0.00248837
0.000367532
-0.000963641
0.000982374
-0.00160648
0.00158569
-0.00155849
0.00207559
-0.00124209
0.00243739
-0.000893567
0.00269404
-0.000617637
0.00287816
-0.000442852
0.00301887
-0.000360545
0.00313709
-0.0003483
0.00324485
-0.000381897
0.00334561
-0.000439018
0.00343355
-0.000496547
0.00349024
-0.000522499
0.0034786
-0.000464044
0.00333749
-0.00023594
0.00298435
0.000280079
0.00235492
0.00118751
0.00145614
0.00246198
0.000500488
0.00361652
0.00298897
0.000342434
-0.00130601
0.000883681
-0.00214754
0.00138312
-0.00205767
0.00176362
-0.00162229
0.00202752
-0.00115715
0.00220388
-0.000793671
0.00232274
-0.000561388
0.00240601
-0.000443501
0.00246662
-0.000408595
0.00251056
-0.000425525
0.00253867
-0.000466816
0.00254632
-0.000503879
0.00252025
-0.000496114
0.00243356
-0.000377025
0.00224368
-4.5741e-05
0.00190441
0.000619675
0.00139497
0.00169728
0.00076718
0.00309006
0.000205999
0.00417795
0.00319508
0.000288665
-0.00159459
0.000693278
-0.00255194
0.00101726
-0.00238136
0.00122477
-0.00182947
0.00134196
-0.00127399
0.00140411
-0.000855469
0.00143631
-0.000593251
0.00145143
-0.000458282
0.00145429
-0.000411129
0.00144627
-0.000417177
0.00142743
-0.000447639
0.0013955
-0.000471618
0.00134242
-0.000442694
0.00125027
-0.000284541
0.00109135
0.000113529
0.000845577
0.000865798
0.000520656
0.00202254
0.000189172
0.00342186
-1.09718e-05
0.00437834
0.0031842
0.000200296
-0.0017948
0.000398136
-0.00274955
0.000479171
-0.00246208
0.000467245
-0.00181719
0.00041206
-0.00121845
0.000347493
-0.000790552
0.000287081
-0.000532498
0.000232193
-0.000403057
0.000180432
-0.000359036
0.000130029
-0.000366442
7.99657e-05
-0.000397244
2.75022e-05
-0.00041882
-3.42931e-05
-0.000380562
-0.000115638
-0.00020285
-0.000222335
0.000220584
-0.000341543
0.000985367
-0.000430667
0.00211201
-0.000414356
0.00340587
-0.000234619
0.00419884
0.00294968
4.54523e-05
-0.00184016
-6.34631e-05
-0.00264039
-0.0002996
-0.00222562
-0.000570749
-0.0015457
-0.000815769
-0.000973087
-0.00101492
-0.000591066
-0.00117226
-0.000374827
-0.00129898
-0.000276005
-0.00140481
-0.00025288
-0.00149611
-0.000274818
-0.00157737
-0.000315659
-0.0016527
-0.000343171
-0.00172424
-0.000308687
-0.00178543
-0.000141322
-0.00180783
0.000243333
-0.00174017
0.000918044
-0.0015137
0.00188587
-0.00107353
0.002966
-0.000464191
0.00358972
0.00248557
-0.000218531
-0.00162153
-0.000760032
-0.00209862
-0.00137836
-0.00160696
-0.00191954
-0.00100417
-0.00233738
-0.000554911
-0.00264314
-0.000284978
-0.00286657
-0.000151079
-0.00303609
-0.000106175
-0.0031733
-0.000115365
-0.00329283
-0.000154982
-0.00340285
-0.000205337
-0.00350364
-0.000242076
-0.00358231
-0.000229719
-0.00360435
-0.000118981
-0.00350836
0.000147653
-0.00321175
0.00062173
-0.00263438
0.0013088
-0.00175107
0.00208295
-0.000704485
0.00254333
0.00178117
-0.000625693
-0.000995714
-0.00167385
-0.0010502
-0.00261049
-0.000669987
-0.00328044
-0.000333892
-0.00370998
-0.000125043
-0.00397112
-2.35229e-05
-0.00413573
1.38253e-05
-0.00425343
1.18138e-05
-0.00435663
-1.18877e-05
-0.00446524
-4.60978e-05
-0.004586
-8.43206e-05
-0.00471186
-0.000115965
-0.00481486
-0.000126462
-0.00483865
-9.49502e-05
-0.00470027
9.5079e-06
-0.00428292
0.000204612
-0.00348831
0.000514418
-0.00229534
0.000890176
-0.000905517
0.00115366
0.000875715
-0.000995586
-0.00204551
-0.00271517
-0.00304873
-0.00317346
-0.00319668
-0.00318258
-0.0031705
-0.00318213
-0.00322799
-0.00331209
-0.00342785
-0.00355411
-0.00364887
-0.00363919
-0.00343441
-0.00291984
-0.00202953
-0.00087576
)
;

boundaryField
{
    leftWall
    {
        type            calculated;
        value           nonuniform List<scalar> 10(0 0 0 0 0 0 0 -4.33681e-19 0 0);
    }
    rightWall
    {
        type            calculated;
        value           nonuniform List<scalar> 10(0 0 0 4.33681e-19 -4.33681e-19 0 -4.33681e-19 0 0 0);
    }
    topWall
    {
        type            calculated;
        value           uniform 0;
    }
    bottomWall
    {
        type            calculated;
        value           uniform 0;
    }
    frontAndBackPlanes
    {
        type            empty;
    }
}


// ************************************************************************* //
