/*--------------------------------*- C++ -*----------------------------------*\
| =========                 |                                                 |
| \\      /  F ield         | OpenFOAM: The Open Source CFD Toolbox           |
|  \\    /   O peration     | Version:  2506                                  |
|   \\  /    A nd           | Website:  www.openfoam.com                      |
|    \\/     M anipulation  |                                                 |
\*---------------------------------------------------------------------------*/
FoamFile
{
    version     2.0;
    format      ascii;
    arch        "LSB;label=32;scalar=64";
    class       volScalarField;
    location    "76.8";
    object      p_rgh;
}
// * * * * * * * * * * * * * * * * * * * * * * * * * * * * * * * * * * * * * //

dimensions      [1 -1 -2 0 0 0 0];

internalField   nonuniform List<scalar> 
200
(
100000
100000
100000
100000
100000
99999.9
99999.9
99999.9
99999.8
99999.8
99999.8
99999.7
99999.7
99999.6
99999.6
99999.4
99999.3
99999
99998.7
99998
100000
100000
100000
99999.9
99999.9
99999.8
99999.8
99999.8
99999.8
99999.7
99999.7
99999.7
99999.6
99999.6
99999.6
99999.5
99999.4
99999.1
99998.4
99996.9
100000
100000
99999.8
99999.7
99999.6
99999.5
99999.5
99999.5
99999.5
99999.5
99999.5
99999.5
99999.4
99999.4
99999.4
99999.4
99999.3
99998.8
99997.7
99995.3
100000
99999.9
99999.5
99999.3
99999.1
99999.1
99999.1
99999.1
99999.1
99999.1
99999.1
99999.1
99999.1
99999.2
99999.2
99999.2
99999
99998.4
99996.7
99993.5
100001
99999.8
99999.1
99998.7
99998.5
99998.4
99998.4
99998.5
99998.5
99998.5
99998.5
99998.6
99998.7
99998.8
99998.9
99998.9
99998.6
99997.7
99995.5
99991.6
100001
99999.6
99998.5
99997.9
99997.7
99997.6
99997.6
99997.7
99997.7
99997.7
99997.8
99997.9
99998
99998.2
99998.3
99998.3
99997.9
99996.6
99994
99989.8
100001
99999.3
99997.8
99997.1
99996.7
99996.7
99996.7
99996.7
99996.6
99996.6
99996.7
99996.7
99996.8
99997
99997.1
99997
99996.5
99995.1
99992.4
99988.1
100002
99998.9
99997.1
99996.1
99995.7
99995.4
99995.3
99995.2
99995.1
99995
99994.9
99994.9
99994.9
99994.9
99995
99994.8
99994.3
99993
99990.5
99986.5
100002
99998.5
99996.2
99995
99994.4
99994
99993.6
99993.4
99993.1
99992.9
99992.6
99992.4
99992.3
99992.1
99992
99991.8
99991.3
99990.3
99988.3
99985
100003
99998.2
99995.7
99994.3
99993.5
99993
99992.6
99992.2
99991.8
99991.4
99991
99990.6
99990.2
99989.9
99989.5
99989.1
99988.5
99987.7
99986.2
99983.8
)
;

boundaryField
{
    leftWall
    {
        type            fixedFluxPressure;
        gradient        nonuniform List<scalar> 10(0.302671 1.82023 5.4501 11.6347 20.5188 32.321 47.6895 68.9933 95.5253 119.913);
        value           nonuniform List<scalar> 10(100000 100000 100000 100001 100001 100002 100003 100004 100005 100006);
    }
    rightWall
    {
        type            fixedFluxPressure;
        gradient        nonuniform List<scalar> 10(-16.3673 -44.9205 -66.3756 -81.9681 -92.2616 -99.5783 -102.071 -97.1268 -82.1418 -60.844);
        value           nonuniform List<scalar> 10(99997.6 99995.8 99993.6 99991.4 99989.3 99987.3 99985.5 99984 99982.9 99982.3);
    }
    topWall
    {
        type            fixedFluxPressure;
        gradient        uniform 0;
        value           nonuniform List<scalar> 
20
(
100000
100000
100000
100000
100000
99999.9
99999.9
99999.9
99999.8
99999.8
99999.8
99999.7
99999.7
99999.6
99999.6
99999.4
99999.3
99999
99998.7
99998
)
;
    }
    bottomWall
    {
        type            fixedFluxPressure;
        gradient        uniform 0;
        value           nonuniform List<scalar> 
20
(
100003
99998.2
99995.7
99994.3
99993.5
99993
99992.6
99992.2
99991.8
99991.4
99991
99990.6
99990.2
99989.9
99989.5
99989.1
99988.5
99987.7
99986.2
99983.8
)
;
    }
    frontAndBackPlanes
    {
        type            empty;
    }
}


// ************************************************************************* //
