/*--------------------------------*- C++ -*----------------------------------*\
| =========                 |                                                 |
| \\      /  F ield         | OpenFOAM: The Open Source CFD Toolbox           |
|  \\    /   O peration     | Version:  2506                                  |
|   \\  /    A nd           | Website:  www.openfoam.com                      |
|    \\/     M anipulation  |                                                 |
\*---------------------------------------------------------------------------*/
FoamFile
{
    version     2.0;
    format      ascii;
    arch        "LSB;label=32;scalar=64";
    class       surfaceScalarField;
    location    "104";
    object      phi;
}
// * * * * * * * * * * * * * * * * * * * * * * * * * * * * * * * * * * * * * //

dimensions      [1 0 -1 0 0 0 0];

oriented        oriented;

internalField   nonuniform List<scalar> 
370
(
0.000264842
-0.000307287
0.000727801
-0.000462885
0.0011377
-0.000409794
0.00142842
-0.000290591
0.00160516
-0.000176594
0.00170179
-9.64713e-05
0.00175708
-5.51229e-05
0.00180399
-4.67264e-05
0.00186695
-6.27704e-05
0.00196275
-9.56135e-05
0.00210253
-0.000139581
0.00229302
-0.000190277
0.00253528
-0.000242048
0.0028184
-0.000282906
0.00310545
-0.000286832
0.00330772
-0.000202042
0.00324671
6.12362e-05
0.00270679
0.000540153
0.00147607
0.00123092
0.00147618
0.00039733
-0.00070458
0.00107404
-0.0011395
0.00173007
-0.00106568
0.00224686
-0.00080721
0.00260923
-0.000538784
0.00284802
-0.00033507
0.00300726
-0.00021417
0.0031278
-0.000167064
0.00324052
-0.000175288
0.00336513
-0.000220016
0.00351089
-0.00028513
0.00367652
-0.00035569
0.00384707
-0.000412378
0.00398649
-0.000422096
0.0040256
-0.000325714
0.00385398
-3.01875e-05
0.003332
0.000583453
0.00231671
0.00155568
0.000939529
0.0026083
0.00241581
0.00039994
-0.00110447
0.00105848
-0.00179791
0.00169246
-0.00169947
0.00219479
-0.00130932
0.00255382
-0.000897592
0.00279763
-0.000578643
0.00296335
-0.000379647
0.0030832
-0.000286685
0.00317987
-0.000271722
0.00326614
-0.000306046
0.00334564
-0.000364394
0.0034125
-0.000422306
0.00344834
-0.000447975
0.00341683
-0.000390344
0.00325909
-0.000167726
0.00289654
0.00033262
0.00227227
0.00120798
0.00139569
0.00243251
0.000474933
0.00352926
0.00289084
0.000355553
-0.00145997
0.000906361
-0.00234856
0.00140347
-0.00219636
0.00177231
-0.00167791
0.00202037
-0.00114539
0.00218074
-0.000738745
0.00228549
-0.000484128
0.00235696
-0.000357886
0.00240763
-0.000322139
0.00244286
-0.000341011
0.00246289
-0.000384168
0.00246266
-0.000421807
0.00242868
-0.000413733
0.00233453
-0.000295929
0.00213993
2.71514e-05
0.00180389
0.000668931
0.0013095
0.00170264
0.000710103
0.00303216
0.00018449
0.00405508
0.00307542
0.000285689
-0.00174559
0.000671651
-0.00273435
0.000967296
-0.00249177
0.00114605
-0.00185639
0.00124021
-0.00123926
0.00128724
-0.000785494
0.00131156
-0.000508172
0.00132404
-0.000370092
0.00132745
-0.000325268
0.00132158
-0.000334873
0.00130557
-0.000367893
0.00127655
-0.000392519
0.00122609
-0.000362992
0.00113671
-0.000206281
0.000982887
0.000181259
0.000748514
0.000903587
0.000444056
0.00200737
0.000141646
0.00333483
-2.86008e-05
0.00422553
0.0030469
0.000186109
-0.00193163
0.000345467
-0.00289352
0.000383872
-0.00252992
0.000338007
-0.00181024
0.000262188
-0.00116316
0.000189089
-0.000712113
0.000128808
-0.000447616
7.92849e-05
-0.000320297
3.55938e-05
-0.000281309
-5.62076e-06
-0.000293391
-4.62701e-05
-0.000326978
-8.93607e-05
-0.000349161
-0.000141477
-0.000310605
-0.000211844
-0.000135636
-0.000304303
0.000274005
-0.000406127
0.0010057
-0.000474499
0.00207603
-0.000436063
0.00329665
-0.000238421
0.00402808
0.00280856
2.18637e-05
-0.00195342
-0.000131034
-0.00274042
-0.000409589
-0.0022511
-0.000708168
-0.00151139
-0.000964263
-0.000906787
-0.00116226
-0.000513842
-0.00131101
-0.000298603
-0.00142528
-0.000205769
-0.00151699
-0.000189338
-0.00159375
-0.000216372
-0.00166061
-0.000259856
-0.00172151
-0.000287998
-0.00177767
-0.00025418
-0.00182144
-9.16044e-05
-0.00182451
0.000277352
-0.00173902
0.000920483
-0.00150003
0.00183731
-0.00105609
0.00285295
-0.000453286
0.00342546
0.00235535
-0.000244815
-0.00170852
-0.000829032
-0.00215599
-0.00147809
-0.00160178
-0.00203098
-0.000958229
-0.00244471
-0.000492786
-0.0027364
-0.00022189
-0.00294112
-9.36323e-05
-0.00308988
-5.67607e-05
-0.00320583
-7.31401e-05
-0.00330463
-0.000117331
-0.00339448
-0.000169764
-0.00347523
-0.000207007
-0.00353364
-0.000195532
-0.00353576
-8.92494e-05
-0.00342324
0.000165077
-0.00311851
0.000615996
-0.00254672
0.00126575
-0.00168596
0.0019924
-0.000675437
0.00241509
0.00167997
-0.000660146
-0.00104828
-0.00174584
-0.00107008
-0.00269305
-0.000654306
-0.00334979
-0.000301223
-0.0037524
-8.99221e-05
-0.00397995
5.91416e-06
-0.00411625
4.29014e-05
-0.00420708
3.42983e-05
-0.00428437
4.37642e-06
-0.00436979
-3.16967e-05
-0.00446849
-7.08594e-05
-0.00457281
-0.000102487
-0.00465528
-0.000112869
-0.00466175
-8.25795e-05
-0.00451283
1.63426e-05
-0.00409919
0.000202541
-0.00332848
0.000495212
-0.00218336
0.00084744
-0.000858426
0.00109027
0.000821597
-0.00104817
-0.00211804
-0.00277209
-0.00307306
-0.00316273
-0.00315658
-0.00311346
-0.00307895
-0.00307437
-0.00310588
-0.00317656
-0.00327888
-0.00339159
-0.00347402
-0.00345754
-0.00325487
-0.00275953
-0.00191198
-0.000821632
)
;

boundaryField
{
    leftWall
    {
        type            calculated;
        value           nonuniform List<scalar> 10(-3.38813e-21 0 -5.42101e-20 0 0 0 0 4.33681e-19 0 -8.67362e-19);
    }
    rightWall
    {
        type            calculated;
        value           nonuniform List<scalar> 10(0 -2.1684e-19 0 0 4.33681e-19 0 -4.33681e-19 -4.33681e-19 0 0);
    }
    topWall
    {
        type            calculated;
        value           uniform 0;
    }
    bottomWall
    {
        type            calculated;
        value           uniform 0;
    }
    frontAndBackPlanes
    {
        type            empty;
    }
}


// ************************************************************************* //
