/*--------------------------------*- C++ -*----------------------------------*\
| =========                 |                                                 |
| \\      /  F ield         | OpenFOAM: The Open Source CFD Toolbox           |
|  \\    /   O peration     | Version:  2506                                  |
|   \\  /    A nd           | Website:  www.openfoam.com                      |
|    \\/     M anipulation  |                                                 |
\*---------------------------------------------------------------------------*/
FoamFile
{
    version     2.0;
    format      ascii;
    arch        "LSB;label=32;scalar=64";
    class       surfaceScalarField;
    location    "16.4";
    object      phi;
}
// * * * * * * * * * * * * * * * * * * * * * * * * * * * * * * * * * * * * * //

dimensions      [1 0 -1 0 0 0 0];

oriented        oriented;

internalField   nonuniform List<scalar> 
370
(
-8.11562e-05
-2.86965e-05
-1.20232e-05
-6.91384e-05
0.000104671
-0.000116703
0.000273034
-0.000168377
0.000489338
-0.000216322
0.000748113
-0.000258797
0.00104376
-0.000295667
0.00137062
-0.000326893
0.00172281
-0.000352208
0.00209383
-0.000371051
0.00247636
-0.000382556
0.00286166
-0.000385319
0.00323802
-0.000376378
0.00358526
-0.000347256
0.00386391
-0.000278663
0.00398862
-0.000124695
0.00381213
0.000176525
0.00311608
0.000696105
0.00169221
0.00142395
0.00169227
2.55501e-05
-5.42439e-05
0.000149207
-0.000192789
0.000371092
-0.000338582
0.000683116
-0.0004804
0.00107582
-0.000609028
0.00153771
-0.000720695
0.00205594
-0.000813908
0.00261607
-0.000887046
0.00320106
-0.000937207
0.00378987
-0.000959883
0.00435621
-0.000948913
0.00486674
-0.000895865
0.00527811
-0.00078776
0.00553272
-0.000601874
0.00555081
-0.000296768
0.00522636
0.000199736
0.00442245
0.000980415
0.00303328
0.00208523
0.00123134
0.00322584
0.00292359
5.46617e-05
-0.000108897
0.000214966
-0.000353071
0.000477264
-0.000600853
0.000831405
-0.000834519
0.00126592
-0.00104353
0.00176811
-0.00122287
0.00232349
-0.00136929
0.00291456
-0.00147812
0.00351895
-0.00154161
0.0041079
-0.00154884
0.00464516
-0.00148618
0.00508636
-0.00133706
0.0053779
-0.00107929
0.00545499
-0.000678966
0.00524051
-8.23006e-05
0.00465407
0.000786153
0.00364669
0.00198772
0.00226714
0.00346465
0.000812729
0.00468008
0.00373621
5.30915e-05
-0.000161973
0.00020379
-0.000503732
0.000443668
-0.000840686
0.000763768
-0.00115458
0.00115449
-0.00143423
0.00160549
-0.00167386
0.00210449
-0.00186828
0.00263497
-0.00200859
0.00317371
-0.00208034
0.00368926
-0.00206437
0.00414227
-0.00193916
0.00448709
-0.00168185
0.00467332
-0.00126548
0.00464601
-0.000651624
0.00434772
0.000215991
0.00373217
0.00140168
0.00279587
0.00292393
0.00163415
0.00462619
0.000530762
0.00578323
0.00426683
3.4496e-05
-0.000196448
0.000135353
-0.000604538
0.000300128
-0.0010054
0.00052558
-0.00137998
0.000807728
-0.00171634
0.00114205
-0.00200815
0.00152176
-0.00224797
0.00193452
-0.00242133
0.00235922
-0.00250499
0.00276485
-0.00246992
0.00311285
-0.00228703
0.00336174
-0.00193058
0.00347097
-0.00137457
0.0034019
-0.00058244
0.00311736
0.000500611
0.00259592
0.00192315
0.00185858
0.0036612
0.0010105
0.00547409
0.000283148
0.00651036
0.00454988
3.29983e-07
-0.000196752
1.61759e-05
-0.000620322
5.78901e-05
-0.00104704
0.000131228
-0.00145326
0.000240203
-0.00182527
0.000388372
-0.00215628
0.000576816
-0.00243637
0.000799854
-0.00264428
0.0010413
-0.00274626
0.00127435
-0.00270268
0.00146652
-0.00247878
0.00158691
-0.00205048
0.00161118
-0.00139839
0.00152159
-0.000492509
0.0013056
0.000716888
0.000970541
0.00225842
0.000563528
0.00406832
0.000186504
0.00585111
-2.05591e-05
0.0067174
0.00452931
-4.7165e-05
-0.000149558
-0.000143805
-0.000523614
-0.000265621
-0.000925148
-0.000399325
-0.00131948
-0.000534088
-0.00169044
-0.000658577
-0.00203173
-0.000763147
-0.00233168
-0.000844657
-0.00256252
-0.00090987
-0.00268055
-0.000973498
-0.00263824
-0.00105054
-0.00240063
-0.00114788
-0.00195191
-0.00126084
-0.00128431
-0.00137399
-0.000378474
-0.00145475
0.00079846
-0.00145363
0.00225798
-0.00130935
0.00392457
-0.000964671
0.00550682
-0.000437364
0.00619036
0.00409207
-8.9094e-05
-6.04354e-05
-0.000293834
-0.000318806
-0.000587446
-0.000631456
-0.000957744
-0.000949111
-0.00139264
-0.00125547
-0.00187662
-0.00154763
-0.00239235
-0.00181566
-0.00292409
-0.00203016
-0.00345892
-0.00214454
-0.0039829
-0.00211239
-0.00447366
-0.00190746
-0.00489437
-0.00152863
-0.00519254
-0.000983755
-0.00530233
-0.000266648
-0.0051378
0.000635636
-0.0046203
0.00174189
-0.00370169
0.0030071
-0.00240437
0.00421042
-0.000947279
0.00473393
0.0031451
-7.4428e-05
1.40212e-05
-0.000299265
-9.38986e-05
-0.000681057
-0.000249581
-0.00121954
-0.000410539
-0.00190767
-0.000567231
-0.00273274
-0.000722346
-0.00367497
-0.00087292
-0.00470356
-0.00100041
-0.00577281
-0.00107312
-0.00682064
-0.00106125
-0.00777058
-0.00095334
-0.00853554
-0.000759214
-0.00901907
-0.000496052
-0.00911421
-0.000167986
-0.00871515
0.000239329
-0.00772203
0.000751003
-0.00608465
0.00137155
-0.0038734
0.00200065
-0.0014758
0.00233743
0.00166982
1.40549e-05
-7.97683e-05
-0.000329259
-0.000739713
-0.00130685
-0.00202901
-0.00290145
-0.00390066
-0.00497138
-0.00602877
-0.00697702
-0.00773056
-0.00822105
-0.00838409
-0.00814068
-0.00738638
-0.0060122
-0.00400948
-0.00167054
)
;

boundaryField
{
    leftWall
    {
        type            calculated;
        value           nonuniform List<scalar> 10(0 0 0 0 0 -1.35525e-20 0 -2.71051e-20 0 0);
    }
    rightWall
    {
        type            calculated;
        value           nonuniform List<scalar> 10(0 0 0 0 0 0 8.67362e-19 0 -8.67362e-19 0);
    }
    topWall
    {
        type            calculated;
        value           uniform 0;
    }
    bottomWall
    {
        type            calculated;
        value           uniform 0;
    }
    frontAndBackPlanes
    {
        type            empty;
    }
}


// ************************************************************************* //
