/*--------------------------------*- C++ -*----------------------------------*\
| =========                 |                                                 |
| \\      /  F ield         | OpenFOAM: The Open Source CFD Toolbox           |
|  \\    /   O peration     | Version:  2506                                  |
|   \\  /    A nd           | Website:  www.openfoam.com                      |
|    \\/     M anipulation  |                                                 |
\*---------------------------------------------------------------------------*/
FoamFile
{
    version     2.0;
    format      ascii;
    arch        "LSB;label=32;scalar=64";
    class       volScalarField;
    location    "16.4";
    object      T;
}
// * * * * * * * * * * * * * * * * * * * * * * * * * * * * * * * * * * * * * //

dimensions      [0 0 0 1 0 0 0];

internalField   nonuniform List<scalar> 
200
(
273.15
273.149
273.148
273.148
273.147
273.147
273.147
273.147
273.147
273.147
273.147
273.147
273.147
273.148
273.15
273.157
273.178
273.237
273.399
273.787
273.149
273.147
273.146
273.145
273.144
273.144
273.143
273.143
273.143
273.143
273.143
273.143
273.144
273.144
273.146
273.152
273.171
273.231
273.403
273.806
273.148
273.145
273.142
273.14
273.139
273.139
273.138
273.138
273.138
273.138
273.138
273.138
273.138
273.139
273.142
273.149
273.171
273.24
273.426
273.832
273.147
273.142
273.138
273.136
273.134
273.133
273.132
273.132
273.132
273.132
273.132
273.133
273.133
273.134
273.138
273.147
273.175
273.255
273.454
273.857
273.146
273.139
273.134
273.13
273.128
273.127
273.127
273.126
273.127
273.127
273.128
273.129
273.13
273.132
273.136
273.149
273.185
273.276
273.488
273.882
273.145
273.136
273.13
273.125
273.122
273.121
273.121
273.121
273.122
273.124
273.128
273.131
273.134
273.136
273.142
273.16
273.206
273.31
273.532
273.909
273.144
273.133
273.125
273.119
273.117
273.116
273.116
273.117
273.121
273.128
273.137
273.148
273.157
273.163
273.175
273.204
273.261
273.375
273.589
273.932
273.143
273.13
273.12
273.114
273.111
273.11
273.112
273.117
273.127
273.143
273.167
273.192
273.217
273.239
273.263
273.3
273.362
273.471
273.659
273.955
273.142
273.127
273.116
273.109
273.106
273.106
273.109
273.119
273.138
273.171
273.216
273.266
273.317
273.363
273.404
273.447
273.507
273.599
273.748
273.984
273.142
273.126
273.114
273.106
273.102
273.101
273.104
273.113
273.135
273.175
273.233
273.303
273.377
273.449
273.516
273.578
273.644
273.727
273.842
274.018
)
;

boundaryField
{
    leftWall
    {
        type            fixedValue;
        value           uniform 273.15;
    }
    rightWall
    {
        type            customNeumannDirichletCoupledBoundary;
        refValue        nonuniform List<scalar> 10(274.125 274.126 274.127 274.129 274.13 274.132 274.134 274.136 274.137 274.138);
        refGradient     uniform 0;
        valueFraction   uniform 1;
        source          uniform 0;
        value           nonuniform List<scalar> 10(274.125 274.126 274.127 274.129 274.13 274.132 274.134 274.136 274.137 274.138);
        kappaMethod     fluidThermo;
    }
    topWall
    {
        type            zeroGradient;
    }
    bottomWall
    {
        type            zeroGradient;
    }
    frontAndBackPlanes
    {
        type            empty;
    }
}


// ************************************************************************* //
