/*--------------------------------*- C++ -*----------------------------------*\
| =========                 |                                                 |
| \\      /  F ield         | OpenFOAM: The Open Source CFD Toolbox           |
|  \\    /   O peration     | Version:  2506                                  |
|   \\  /    A nd           | Website:  www.openfoam.com                      |
|    \\/     M anipulation  |                                                 |
\*---------------------------------------------------------------------------*/
FoamFile
{
    version     2.0;
    format      ascii;
    arch        "LSB;label=32;scalar=64";
    class       surfaceScalarField;
    location    "49.4";
    object      phi;
}
// * * * * * * * * * * * * * * * * * * * * * * * * * * * * * * * * * * * * * //

dimensions      [1 0 -1 0 0 0 0];

oriented        oriented;

internalField   nonuniform List<scalar> 
370
(
1.20557e-05
-9.49839e-05
0.000195127
-0.000183032
0.000410543
-0.000215358
0.000624272
-0.000213655
0.000818847
-0.000194492
0.000992195
-0.000173259
0.00115197
-0.000159685
0.00131064
-0.000158576
0.00148246
-0.000171719
0.00168172
-0.000199157
0.00192136
-0.000239533
0.00221087
-0.000289399
0.00255185
-0.000340858
0.00292989
-0.000377923
0.00330076
-0.000370746
0.00356647
-0.000265593
0.00352919
3.74002e-05
0.00296589
0.000563418
0.00163646
0.00132954
0.00163653
0.000162586
-0.00025754
0.000514617
-0.000534977
0.000932591
-0.000633201
0.00134316
-0.000624071
0.00171528
-0.000566441
0.00204356
-0.000501362
0.00233683
-0.00045277
0.00261015
-0.000431712
0.00287953
-0.000440905
0.00315831
-0.000477747
0.0034541
-0.000535121
0.00376458
-0.000599675
0.00407133
-0.00064739
0.0043302
-0.000636575
0.00445891
-0.000499243
0.00432871
-0.000135183
0.00378812
0.000578194
0.00266406
0.00168768
0.0010979
0.00289589
0.00273453
0.000235914
-0.000493393
0.000685984
-0.000984875
0.00118885
-0.00113582
0.00165866
-0.00109358
0.00206379
-0.000971264
0.0024032
-0.000840451
0.00268956
-0.000738813
0.00293922
-0.00068106
0.00316673
-0.00066809
0.00338182
-0.000692519
0.00358718
-0.000740149
0.00377515
-0.000787303
0.00392241
-0.000794307
0.00398274
-0.000696558
0.00388115
-0.000397323
0.00351865
0.000227635
0.002814
0.00128315
0.00177175
0.00273023
0.000631207
0.00403669
0.00336587
0.000269112
-0.000762408
0.000748838
-0.00146433
0.00124626
-0.00163286
0.00167477
-0.00152165
0.00201269
-0.00130873
0.00226985
-0.00109715
0.00246637
-0.000934878
0.00262173
-0.000835982
0.00275051
-0.000796428
0.00286131
-0.000802865
0.00295632
-0.000834705
0.00302965
-0.000860163
0.00306324
-0.000827422
0.00302121
-0.000654054
0.00284703
-0.000222699
0.00247369
0.000601397
0.00186606
0.00189119
0.0010778
0.00351886
0.000328014
0.00478681
0.00369404
0.000271652
-0.00103393
0.000710038
-0.00190235
0.00111672
-0.00203904
0.00142131
-0.00182567
0.00162209
-0.00150895
0.00174389
-0.00121839
0.00181434
-0.00100478
0.00185459
-0.000875698
0.001878
-0.000819299
0.00189172
-0.000816033
0.00189802
-0.000840437
0.00189357
-0.000855134
0.00186644
-0.000799693
0.00179207
-0.0005791
0.00163184
-6.1903e-05
0.00134415
0.000889614
0.000922637
0.00231319
0.000443559
0.00399839
8.00702e-05
0.00515067
0.00377428
0.000230099
-0.00126386
0.000536919
-0.00220873
0.000755352
-0.00225687
0.000854793
-0.00192447
0.000862443
-0.00151596
0.000816919
-0.00117225
0.00074751
-0.000934766
0.000671299
-0.000798887
0.000596622
-0.000744011
0.000526903
-0.000745683
0.000462249
-0.000775125
0.000398648
-0.000790846
0.000326351
-0.00072669
0.000230287
-0.000482329
9.58693e-05
7.31875e-05
-6.8932e-05
0.00105505
-0.000225846
0.00247069
-0.000295399
0.00406846
-0.000197406
0.00505307
0.00357704
0.000116442
-0.00138011
0.000160671
-0.00225245
6.93242e-05
-0.00216486
-0.000117622
-0.00173683
-0.000345301
-0.00128761
-0.00057503
-0.000941876
-0.000788325
-0.000720839
-0.00098003
-0.000606543
-0.00115112
-0.000572257
-0.00130475
-0.000591374
-0.00144509
-0.000634071
-0.00157696
-0.000658241
-0.00170314
-0.000599754
-0.00181693
-0.000367782
-0.0018878
0.000144805
-0.00185078
0.00101872
-0.0016282
0.00224875
-0.00116429
0.00360509
-0.000508419
0.00439759
0.00306878
-0.000119081
-0.0012608
-0.000496609
-0.00187434
-0.00100615
-0.00165462
-0.00152425
-0.00121802
-0.00198666
-0.000824537
-0.0023776
-0.0005503
-0.0027049
-0.000392906
-0.00298435
-0.000326452
-0.00323184
-0.000324122
-0.00346013
-0.00036243
-0.00367685
-0.000416676
-0.00388068
-0.000453731
-0.00405385
-0.000425886
-0.00415177
-0.000269167
-0.00409555
8.92795e-05
-0.00378064
0.000704458
-0.00311462
0.00158333
-0.00207531
0.00256628
-0.000837022
0.00315967
0.0022319
-0.000485232
-0.000775293
-0.00138385
-0.000975094
-0.00228818
-0.000749556
-0.00302765
-0.000477852
-0.00358017
-0.00027138
-0.00398348
-0.000146392
-0.00428862
-8.71995e-05
-0.00454099
-7.35336e-05
-0.00477476
-8.98149e-05
-0.00501203
-0.00012462
-0.00526132
-0.000166839
-0.00551233
-0.000202182
-0.00572721
-0.000210462
-0.00583167
-0.000164156
-0.00571608
-2.5772e-05
-0.00524062
0.000229527
-0.00428437
0.000627578
-0.00282704
0.00110937
-0.00111849
0.00145144
0.00111354
-0.000774985
-0.0017494
-0.00249819
-0.00297532
-0.00324607
-0.0033919
-0.0034786
-0.00355168
-0.00364106
-0.00376526
-0.0039317
-0.00413349
-0.00434357
-0.00450735
-0.00453276
-0.00430288
-0.00367497
-0.0025653
-0.00111364
)
;

boundaryField
{
    leftWall
    {
        type            calculated;
        value           nonuniform List<scalar> 10(0 0 0 0 0 0 0 0 0 4.33681e-19);
    }
    rightWall
    {
        type            calculated;
        value           nonuniform List<scalar> 10(0 0 0 0 0 0 0 0 0 -4.33681e-19);
    }
    topWall
    {
        type            calculated;
        value           uniform 0;
    }
    bottomWall
    {
        type            calculated;
        value           uniform 0;
    }
    frontAndBackPlanes
    {
        type            empty;
    }
}


// ************************************************************************* //
