/*--------------------------------*- C++ -*----------------------------------*\
| =========                 |                                                 |
| \\      /  F ield         | OpenFOAM: The Open Source CFD Toolbox           |
|  \\    /   O peration     | Version:  2506                                  |
|   \\  /    A nd           | Website:  www.openfoam.com                      |
|    \\/     M anipulation  |                                                 |
\*---------------------------------------------------------------------------*/
FoamFile
{
    version     2.0;
    format      ascii;
    arch        "LSB;label=32;scalar=64";
    class       volVectorField;
    location    "94.2";
    object      U;
}
// * * * * * * * * * * * * * * * * * * * * * * * * * * * * * * * * * * * * * //

dimensions      [0 1 -1 0 0 0 0];

internalField   nonuniform List<vector> 
200
(
(0.000298335 -0.000905061 0)
(0.00178449 -0.00118939 0)
(0.00347972 -0.000909929 0)
(0.00490284 -0.000535248 0)
(0.00584816 -0.000239776 0)
(0.00641241 -6.82642e-05 0)
(0.00674789 -1.21404e-05 0)
(0.00699717 -4.3876e-05 0)
(0.00727228 -0.000136381 0)
(0.007654 -0.000271698 0)
(0.00819882 -0.000442528 0)
(0.00894615 -0.000648499 0)
(0.00991898 -0.000886834 0)
(0.0111097 -0.0011351 0)
(0.0124359 -0.00132101 0)
(0.0136404 -0.0012688 0)
(0.0141382 -0.000613588 0)
(0.0130154 0.0012024 0)
(0.00933792 0.00427669 0)
(0.00281984 0.00597932 0)
(0.000423667 -0.00374958 0)
(0.00279488 -0.00601423 0)
(0.00547696 -0.00559731 0)
(0.00786419 -0.00422213 0)
(0.00965775 -0.00280947 0)
(0.0108926 -0.00176389 0)
(0.0117308 -0.00118591 0)
(0.0123472 -0.0010281 0)
(0.0128851 -0.00119259 0)
(0.0134444 -0.00158229 0)
(0.0140832 -0.00211792 0)
(0.0148191 -0.00272796 0)
(0.0156234 -0.00331255 0)
(0.0163977 -0.00367905 0)
(0.0169323 -0.00344828 0)
(0.0168521 -0.00194851 0)
(0.0155547 0.00180113 0)
(0.0123592 0.00853739 0)
(0.00721073 0.0167587 0)
(0.00123439 0.0171577 0)
(0.000442836 -0.00692047 0)
(0.00288117 -0.0114494 0)
(0.0055537 -0.0110098 0)
(0.00792454 -0.00865528 0)
(0.00972 -0.00609477 0)
(0.0109761 -0.00408917 0)
(0.0118392 -0.00284745 0)
(0.0124576 -0.00230623 0)
(0.0129445 -0.00229983 0)
(0.0133715 -0.00264883 0)
(0.0137717 -0.00318978 0)
(0.014142 -0.003759 0)
(0.014436 -0.00413583 0)
(0.0145447 -0.00395074 0)
(0.0142688 -0.00257923 0)
(0.013282 0.000907874 0)
(0.0112517 0.00745337 0)
(0.00801502 0.0171492 0)
(0.00399884 0.0266736 0)
(0.000470326 0.0231653 0)
(0.000417049 -0.0100102 0)
(0.00260054 -0.0165068 0)
(0.00483299 -0.0158399 0)
(0.00669664 -0.0124684 0)
(0.00802117 -0.00883105 0)
(0.00889244 -0.0059717 0)
(0.00945843 -0.00414801 0)
(0.00983947 -0.00324642 0)
(0.01011 -0.00302496 0)
(0.0103075 -0.00323322 0)
(0.0104445 -0.00364685 0)
(0.0105137 -0.00403849 0)
(0.0104807 -0.00409889 0)
(0.0102657 -0.0033275 0)
(0.00972449 -0.000944642 0)
(0.00863796 0.00404699 0)
(0.00687115 0.0123968 0)
(0.00443674 0.0235757 0)
(0.00181669 0.0328953 0)
(9.10594e-05 0.0259604 0)
(0.00037024 -0.0127097 0)
(0.00208901 -0.0205528 0)
(0.00359819 -0.0193537 0)
(0.00467168 -0.0149616 0)
(0.00529483 -0.0104289 0)
(0.00561538 -0.00695687 0)
(0.00577457 -0.00476155 0)
(0.0058537 -0.00363646 0)
(0.00588426 -0.00326213 0)
(0.00587343 -0.00334256 0)
(0.00582135 -0.00362843 0)
(0.00572393 -0.00386399 0)
(0.00556208 -0.00368294 0)
(0.00528317 -0.00248817 0)
(0.00477869 0.00060154 0)
(0.0039481 0.00655339 0)
(0.0027534 0.0159124 0)
(0.00133478 0.0275759 0)
(0.000108312 0.0360162 0)
(-0.000168818 0.0266801 0)
(0.000292683 -0.0147947 0)
(0.00130103 -0.0231251 0)
(0.00180187 -0.0210812 0)
(0.00185729 -0.0157805 0)
(0.00164546 -0.0106678 0)
(0.00135215 -0.00692431 0)
(0.00107599 -0.00463098 0)
(0.000838832 -0.0034683 0)
(0.000628513 -0.00306194 0)
(0.000430454 -0.00310535 0)
(0.000237071 -0.0033514 0)
(4.08403e-05 -0.00352971 0)
(-0.000178132 -0.00322712 0)
(-0.000456515 -0.00177989 0)
(-0.000844049 0.00172422 0)
(-0.00131788 0.00814985 0)
(-0.00175994 0.0177547 0)
(-0.00192027 0.0289793 0)
(-0.00152299 0.036109 0)
(-0.000366554 0.0256412 0)
(0.000161509 -0.0158667 0)
(5.42875e-05 -0.0235628 0)
(-0.000835728 -0.0204376 0)
(-0.00202229 -0.0145486 0)
(-0.00316328 -0.00935991 0)
(-0.004105 -0.00579188 0)
(-0.00483466 -0.00371507 0)
(-0.00540068 -0.00272013 0)
(-0.00585636 -0.002425 0)
(-0.00623917 -0.00254274 0)
(-0.00657304 -0.00283568 0)
(-0.00687786 -0.00302108 0)
(-0.00717111 -0.0026701 0)
(-0.00744806 -0.00114437 0)
(-0.00764036 0.00234918 0)
(-0.00756181 0.00848015 0)
(-0.00694536 0.0172919 0)
(-0.00552557 0.0271598 0)
(-0.00330925 0.0328776 0)
(-0.000611011 0.02275 0)
(-0.000147938 -0.0151902 0)
(-0.00199446 -0.0208158 0)
(-0.00462643 -0.0167319 0)
(-0.00717153 -0.0109792 0)
(-0.00920036 -0.00642746 0)
(-0.0106787 -0.00355159 0)
(-0.0117295 -0.0020279 0)
(-0.0124942 -0.00142041 0)
(-0.013084 -0.00138169 0)
(-0.0135766 -0.00166447 0)
(-0.0140219 -0.00206155 0)
(-0.0144413 -0.00232086 0)
(-0.0148158 -0.00207761 0)
(-0.0150547 -0.000827715 0)
(-0.0149435 0.0020154 0)
(-0.0141592 0.00693869 0)
(-0.0123324 0.0139238 0)
(-0.00923212 0.0216382 0)
(-0.00515278 0.0259889 0)
(-0.000876916 0.0178916 0)
(-0.00076078 -0.0116438 0)
(-0.00493823 -0.0139635 0)
(-0.00926285 -0.00975994 0)
(-0.0126833 -0.00532443 0)
(-0.0149239 -0.00232577 0)
(-0.016257 -0.000724136 0)
(-0.0170401 -8.7237e-05 0)
(-0.0175468 -2.46975e-05 0)
(-0.017944 -0.000280311 0)
(-0.0183373 -0.000696096 0)
(-0.0187846 -0.00114799 0)
(-0.0192879 -0.00149048 0)
(-0.0197808 -0.00151349 0)
(-0.0200985 -0.000924854 0)
(-0.0199373 0.000632874 0)
(-0.0188401 0.00351048 0)
(-0.0163254 0.00776818 0)
(-0.0121229 0.0126531 0)
(-0.00667606 0.015687 0)
(-0.00113641 0.0111492 0)
(-0.00185403 -0.00396545 0)
(-0.00667589 -0.00363253 0)
(-0.0102999 -0.0018294 0)
(-0.0123632 -0.000493646 0)
(-0.0132007 0.000178318 0)
(-0.0133829 0.000410197 0)
(-0.0133036 0.000405432 0)
(-0.0131782 0.000297146 0)
(-0.0131314 0.00014737 0)
(-0.013224 -2.14064e-05 0)
(-0.0134797 -0.000195681 0)
(-0.0138951 -0.000360867 0)
(-0.0144172 -0.000487638 0)
(-0.014918 -0.000520723 0)
(-0.0151584 -0.000366274 0)
(-0.0147819 0.00012354 0)
(-0.0133072 0.00107853 0)
(-0.0103344 0.00244966 0)
(-0.00607291 0.00367082 0)
(-0.00145327 0.00312353 0)
)
;

boundaryField
{
    leftWall
    {
        type            fixedValue;
        value           uniform (0 0 0);
    }
    rightWall
    {
        type            fixedValue;
        value           uniform (0 0 0);
    }
    topWall
    {
        type            fixedValue;
        value           uniform (0 0 0);
    }
    bottomWall
    {
        type            fixedValue;
        value           uniform (0 0 0);
    }
    frontAndBackPlanes
    {
        type            empty;
    }
}


// ************************************************************************* //
