/*--------------------------------*- C++ -*----------------------------------*\
| =========                 |                                                 |
| \\      /  F ield         | OpenFOAM: The Open Source CFD Toolbox           |
|  \\    /   O peration     | Version:  2506                                  |
|   \\  /    A nd           | Website:  www.openfoam.com                      |
|    \\/     M anipulation  |                                                 |
\*---------------------------------------------------------------------------*/
FoamFile
{
    version     2.0;
    format      ascii;
    arch        "LSB;label=32;scalar=64";
    class       volScalarField;
    location    "132";
    object      T;
}
// * * * * * * * * * * * * * * * * * * * * * * * * * * * * * * * * * * * * * //

dimensions      [0 0 0 1 0 0 0];

internalField   nonuniform List<scalar> 
200
(
273.168
273.199
273.222
273.237
273.248
273.255
273.261
273.266
273.27
273.274
273.279
273.283
273.288
273.293
273.299
273.309
273.333
273.395
273.545
273.869
273.179
273.229
273.264
273.284
273.296
273.301
273.305
273.307
273.309
273.311
273.315
273.318
273.322
273.325
273.328
273.334
273.355
273.414
273.569
273.894
273.193
273.269
273.322
273.352
273.367
273.372
273.373
273.373
273.372
273.372
273.373
273.374
273.375
273.374
273.373
273.377
273.394
273.455
273.613
273.926
273.208
273.311
273.381
273.421
273.439
273.445
273.444
273.441
273.438
273.436
273.434
273.432
273.43
273.425
273.42
273.42
273.437
273.501
273.661
273.955
273.223
273.352
273.439
273.487
273.506
273.511
273.508
273.503
273.498
273.494
273.491
273.487
273.481
273.472
273.465
273.463
273.483
273.553
273.714
273.981
273.238
273.393
273.496
273.548
273.566
273.568
273.563
273.558
273.554
273.551
273.547
273.543
273.535
273.525
273.518
273.52
273.546
273.618
273.768
274.003
273.255
273.438
273.551
273.602
273.619
273.621
273.619
273.617
273.616
273.616
273.614
273.611
273.606
273.599
273.596
273.602
273.629
273.696
273.825
274.024
273.277
273.483
273.601
273.653
273.673
273.68
273.684
273.688
273.693
273.697
273.7
273.701
273.701
273.7
273.7
273.708
273.733
273.788
273.89
274.048
273.3
273.524
273.645
273.702
273.729
273.744
273.754
273.764
273.773
273.782
273.79
273.798
273.805
273.811
273.818
273.828
273.849
273.89
273.962
274.075
273.317
273.545
273.666
273.726
273.756
273.775
273.79
273.803
273.817
273.83
273.844
273.858
273.872
273.887
273.903
273.921
273.943
273.976
274.026
274.1
)
;

boundaryField
{
    leftWall
    {
        type            fixedValue;
        value           uniform 273.15;
    }
    rightWall
    {
        type            customNeumannDirichletCoupledBoundary;
        refValue        nonuniform List<scalar> 10(274.131 274.132 274.134 274.136 274.137 274.139 274.141 274.142 274.144 274.145);
        refGradient     uniform 0;
        valueFraction   uniform 1;
        source          uniform 0;
        value           nonuniform List<scalar> 10(274.131 274.132 274.134 274.136 274.137 274.139 274.141 274.142 274.144 274.145);
        kappaMethod     fluidThermo;
    }
    topWall
    {
        type            zeroGradient;
    }
    bottomWall
    {
        type            zeroGradient;
    }
    frontAndBackPlanes
    {
        type            empty;
    }
}


// ************************************************************************* //
