/*--------------------------------*- C++ -*----------------------------------*\
| =========                 |                                                 |
| \\      /  F ield         | OpenFOAM: The Open Source CFD Toolbox           |
|  \\    /   O peration     | Version:  2506                                  |
|   \\  /    A nd           | Website:  www.openfoam.com                      |
|    \\/     M anipulation  |                                                 |
\*---------------------------------------------------------------------------*/
FoamFile
{
    version     2.0;
    format      ascii;
    arch        "LSB;label=32;scalar=64";
    class       surfaceScalarField;
    location    "41.8";
    object      phi;
}
// * * * * * * * * * * * * * * * * * * * * * * * * * * * * * * * * * * * * * //

dimensions      [1 0 -1 0 0 0 0];

oriented        oriented;

internalField   nonuniform List<scalar> 
370
(
-2.04999e-05
-7.10232e-05
0.000137483
-0.000157963
0.00034775
-0.000210233
0.00058029
-0.000232497
0.000811485
-0.000231144
0.00103003
-0.000218485
0.00123535
-0.000205261
0.00143419
-0.000198784
0.00163757
-0.000203324
0.00185833
-0.000220692
0.00210885
-0.000250459
0.00239841
-0.000289502
0.00272853
-0.000330054
0.00308537
-0.000356779
0.0034267
-0.000341261
0.0036578
-0.000231045
0.00359156
6.63132e-05
0.00300175
0.000589876
0.00165251
0.00134932
0.00165255
0.000135514
-0.000206518
0.000466632
-0.000489023
0.00089735
-0.000640858
0.00135503
-0.00069006
0.0017974
-0.000673376
0.00220535
-0.000626288
0.0025762
-0.000575965
0.00291724
-0.000539672
0.00324007
-0.000525998
0.00355593
-0.0005364
0.00387137
-0.000565741
0.00418316
-0.000601136
0.00447197
-0.000618709
0.00469349
-0.000578156
0.00476746
-0.000415081
0.00457184
-3.52938e-05
0.00395594
0.000682353
0.00276295
0.00178301
0.0011355
0.00297692
0.00278814
0.000216517
-0.000422989
0.000668038
-0.000940405
0.00121022
-0.00118282
0.00174928
-0.00122886
0.00223807
-0.00116187
0.00266169
-0.0010496
0.00302381
-0.000937783
0.00333637
-0.000851929
0.0036126
-0.000801928
0.00386231
-0.000785811
0.004088
-0.000791133
0.00428054
-0.000793377
0.00441363
-0.000751511
0.00443769
-0.000601942
0.00427689
-0.000254033
0.00383478
0.000407051
0.00304064
0.00147672
0.00190616
0.00291773
0.000681449
0.00420186
0.00346972
0.000260074
-0.000682974
0.00076244
-0.00144251
0.00131753
-0.00173752
0.00182165
-0.00173252
0.00223511
-0.00157484
0.00255674
-0.00137074
0.00280317
-0.00118373
0.00299545
-0.00104374
0.00315182
-0.000957848
0.00328421
-0.000917743
0.00339598
-0.000902463
0.0034793
-0.000876257
0.00351099
-0.000782772
0.00344809
-0.000538645
0.00322967
-3.52485e-05
0.00278908
0.000847969
0.00209748
0.00216864
0.00121642
0.00379912
0.000379012
0.00503957
0.00384889
0.000272813
-0.000955643
0.000746814
-0.0019161
0.00121286
-0.00220298
0.00157735
-0.00209633
0.00182208
-0.00181889
0.00196748
-0.00151549
0.00204571
-0.00126133
0.00208623
-0.00108367
0.00211041
-0.000981452
0.00213062
-0.000937384
0.00215041
-0.000921677
0.00216361
-0.000888885
0.00215194
-0.000770542
0.00208241
-0.000468583
0.00190682
0.000140809
0.00158522
0.00117
0.00110904
0.00264524
0.000557987
0.00435057
0.000120802
0.00547711
0.00396986
0.000237503
-0.00119294
0.000579781
-0.00225782
0.000839794
-0.00246222
0.000962962
-0.00221866
0.000966479
-0.0018216
0.000894797
-0.00144306
0.000790025
-0.00115586
0.000681787
-0.000974766
0.0005869
-0.000885904
0.000512302
-0.000862111
0.000457437
-0.000866113
0.000414875
-0.000845601
0.000369992
-0.00072493
0.000302018
-0.000399909
0.000190577
0.000252868
3.35625e-05
0.00132757
-0.00013527
0.00281461
-0.000235828
0.00445162
-0.000175868
0.00541753
0.00379415
0.000124357
-0.00131703
0.000190337
-0.00232308
0.000106112
-0.00237706
-0.000105126
-0.00200647
-0.000385163
-0.0015407
-0.000680523
-0.00114692
-0.00095735
-0.000878314
-0.00120031
-0.000731088
-0.00140618
-0.000679297
-0.00157801
-0.000689508
-0.00172155
-0.000721749
-0.00184286
-0.000723427
-0.00194484
-0.000622092
-0.00202061
-0.000323292
-0.00204112
0.00027415
-0.00195317
0.00124031
-0.0016886
0.00255067
-0.00119446
0.00395802
-0.000519033
0.00474249
0.00327527
-0.000114736
-0.00120196
-0.00049556
-0.00194141
-0.00104033
-0.00183125
-0.00162678
-0.00141903
-0.00217373
-0.000992886
-0.00264903
-0.000670844
-0.00305076
-0.000475852
-0.0033914
-0.000389704
-0.00368729
-0.000382644
-0.00395234
-0.000423671
-0.00419378
-0.000479492
-0.00440725
-0.000509123
-0.0045696
-0.000458901
-0.00463045
-0.000261608
-0.00450978
0.000154282
-0.00410874
0.000839999
-0.00334551
0.00178807
-0.00220839
0.00282143
-0.000884499
0.00341897
0.00239092
-0.000477372
-0.000724184
-0.00140385
-0.00101395
-0.00238563
-0.000848348
-0.0032266
-0.00057702
-0.00387647
-0.000342141
-0.00436008
-0.000186484
-0.00472824
-0.000107018
-0.00503197
-8.53302e-05
-0.00531125
-0.000102726
-0.00559084
-0.000143456
-0.00587773
-0.000191973
-0.00615614
-0.000230074
-0.00637973
-0.00023466
-0.00646437
-0.000176307
-0.00629604
-1.33795e-05
-0.0057272
0.000271779
-0.00464535
0.000706767
-0.00304365
0.00122019
-0.00119694
0.0015726
0.00119411
-0.000723703
-0.00173656
-0.00258365
-0.00315952
-0.00350069
-0.00368636
-0.00379271
-0.00387746
-0.00397967
-0.00412265
-0.00431418
-0.00454382
-0.00477805
-0.00495393
-0.00496689
-0.00469471
-0.00398756
-0.00276705
-0.00119422
)
;

boundaryField
{
    leftWall
    {
        type            calculated;
        value           nonuniform List<scalar> 10(0 0 3.38813e-21 0 0 0 0 0 0 0);
    }
    rightWall
    {
        type            calculated;
        value           nonuniform List<scalar> 10(0 0 0 -4.33681e-19 0 0 0 0 0 0);
    }
    topWall
    {
        type            calculated;
        value           uniform 0;
    }
    bottomWall
    {
        type            calculated;
        value           uniform 0;
    }
    frontAndBackPlanes
    {
        type            empty;
    }
}


// ************************************************************************* //
