/*--------------------------------*- C++ -*----------------------------------*\
| =========                 |                                                 |
| \\      /  F ield         | OpenFOAM: The Open Source CFD Toolbox           |
|  \\    /   O peration     | Version:  2506                                  |
|   \\  /    A nd           | Website:  www.openfoam.com                      |
|    \\/     M anipulation  |                                                 |
\*---------------------------------------------------------------------------*/
FoamFile
{
    version     2.0;
    format      ascii;
    arch        "LSB;label=32;scalar=64";
    class       volScalarField;
    location    "8.2";
    object      p_rgh;
}
// * * * * * * * * * * * * * * * * * * * * * * * * * * * * * * * * * * * * * //

dimensions      [1 -1 -2 0 0 0 0];

internalField   nonuniform List<scalar> 
200
(
100000
100000
100000
100000
100000
100000
100000
100000
100000
100000
100000
100000
100000
99999.9
99999.8
99999.7
99999.5
99999.3
99998.9
99998.2
100000
100000
100000
100000
100000
100000
100000
100000
100000
100000
100000
100000
100000
99999.9
99999.9
99999.8
99999.7
99999.4
99998.7
99997
100000
100000
100000
100000
100000
100000
100000
100000
100000
100000
100000
100000
100000
100000
100000
99999.9
99999.7
99999.3
99998
99995.3
100000
100000
100000
100000
100000
100000
100000
100000
100000
100000
100000
100000
100000
100000
100000
100000
99999.7
99999
99997.2
99993.4
100000
100000
100000
100000
100000
100000
100000
100000
100000
100000
100000
100000
100000
100000
100000
100000
99999.8
99998.8
99996.3
99991.4
100000
100000
100000
100000
100000
100000
100000
100000
100000
100000
100000
100000
100000
100000
100000
100000
99999.8
99998.5
99995.3
99989.4
100000
100000
100001
100001
100001
100001
100001
100001
100001
100001
100001
100001
100001
100001
100001
100000
99999.7
99998
99994.3
99987.5
100000
100000
100001
100001
100001
100001
100001
100001
100001
100001
100001
100001
100001
100001
100001
100000
99999.3
99997.2
99993.1
99985.6
100000
100001
100001
100001
100001
100001
100001
100001
100001
100001
100001
100001
100001
100001
100001
99999.7
99998.3
99995.8
99991.5
99983.8
100000
100001
100001
100001
100001
100001
100001
100001
100001
100001
100001
100001
100001
100001
100000
99999.3
99997.2
99994.2
99989.6
99982.4
)
;

boundaryField
{
    leftWall
    {
        type            fixedFluxPressure;
        gradient        nonuniform List<scalar> 10(-0.0128432 -0.200582 -0.719281 -1.56839 -2.75331 -4.2799 -6.14365 -8.30631 -10.6521 -12.954);
        value           nonuniform List<scalar> 10(100000 100000 100000 100000 100000 100000 100000 99999.9 99999.8 99999.7);
    }
    rightWall
    {
        type            fixedFluxPressure;
        gradient        nonuniform List<scalar> 10(-18.8802 -52.4696 -80.5063 -105.755 -130.033 -153.504 -178.167 -201.403 -218.857 -228.417);
        value           nonuniform List<scalar> 10(99997.8 99995.7 99993.3 99990.8 99988.2 99985.6 99983 99980.6 99978.4 99976.7);
    }
    topWall
    {
        type            fixedFluxPressure;
        gradient        uniform 0;
        value           nonuniform List<scalar> 
20
(
100000
100000
100000
100000
100000
100000
100000
100000
100000
100000
100000
100000
100000
99999.9
99999.8
99999.7
99999.5
99999.3
99998.9
99998.2
)
;
    }
    bottomWall
    {
        type            fixedFluxPressure;
        gradient        uniform 0;
        value           nonuniform List<scalar> 
20
(
100000
100001
100001
100001
100001
100001
100001
100001
100001
100001
100001
100001
100001
100001
100000
99999.3
99997.2
99994.2
99989.6
99982.4
)
;
    }
    frontAndBackPlanes
    {
        type            empty;
    }
}


// ************************************************************************* //
