/*--------------------------------*- C++ -*----------------------------------*\
| =========                 |                                                 |
| \\      /  F ield         | OpenFOAM: The Open Source CFD Toolbox           |
|  \\    /   O peration     | Version:  2506                                  |
|   \\  /    A nd           | Website:  www.openfoam.com                      |
|    \\/     M anipulation  |                                                 |
\*---------------------------------------------------------------------------*/
FoamFile
{
    version     2.0;
    format      ascii;
    arch        "LSB;label=32;scalar=64";
    class       volVectorField;
    location    "48.8";
    object      U;
}
// * * * * * * * * * * * * * * * * * * * * * * * * * * * * * * * * * * * * * //

dimensions      [0 1 -1 0 0 0 0];

internalField   nonuniform List<vector> 
200
(
(-0.000138969 -0.000267869 0)
(0.000293558 -0.000424551 0)
(0.00118567 -0.000430868 0)
(0.00213969 -0.000400012 0)
(0.00300228 -0.000346161 0)
(0.00377333 -0.000297232 0)
(0.00446927 -0.000276686 0)
(0.00513176 -0.00029619 0)
(0.00581725 -0.000360944 0)
(0.00658678 -0.000473978 0)
(0.00749919 -0.00063732 0)
(0.00860457 -0.000849711 0)
(0.00993211 -0.00109971 0)
(0.0114667 -0.00135186 0)
(0.0131036 -0.00152254 0)
(0.0145526 -0.00143354 0)
(0.0151841 -0.000721051 0)
(0.0140451 0.001215 0)
(0.0101369 0.00453077 0)
(0.0030721 0.00648362 0)
(0.000145994 -0.00134455 0)
(0.0013009 -0.00274529 0)
(0.00295548 -0.00327587 0)
(0.00473336 -0.00327492 0)
(0.00639667 -0.0030119 0)
(0.00787174 -0.00270547 0)
(0.0091731 -0.00249332 0)
(0.0103556 -0.00244582 0)
(0.0114872 -0.00258839 0)
(0.0126321 -0.00291712 0)
(0.0138371 -0.00340292 0)
(0.015118 -0.00398095 0)
(0.0164379 -0.00452273 0)
(0.0176746 -0.00478783 0)
(0.0185763 -0.00435397 0)
(0.0187126 -0.00253151 0)
(0.0174261 0.00167715 0)
(0.0139544 0.00906758 0)
(0.00822359 0.0181178 0)
(0.0014354 0.0188432 0)
(0.000245504 -0.00301902 0)
(0.0018331 -0.00616557 0)
(0.00387612 -0.00727651 0)
(0.00596533 -0.00716491 0)
(0.00782659 -0.00650183 0)
(0.00939344 -0.00574434 0)
(0.0107015 -0.005153 0)
(0.0118191 -0.00484485 0)
(0.012815 -0.00484423 0)
(0.0137426 -0.00511529 0)
(0.0146308 -0.00557058 0)
(0.0154728 -0.00605317 0)
(0.0162088 -0.00629171 0)
(0.0166995 -0.00583344 0)
(0.0166952 -0.0039744 0)
(0.0158042 0.000258983 0)
(0.0135919 0.00784897 0)
(0.00985481 0.0188315 0)
(0.00506593 0.0296327 0)
(0.000652202 0.0260789 0)
(0.000294375 -0.0051675 0)
(0.00207063 -0.0101855 0)
(0.0041726 -0.0116455 0)
(0.00616463 -0.0111305 0)
(0.00779274 -0.00981392 0)
(0.00903775 -0.00842136 0)
(0.00997719 -0.0073232 0)
(0.0107034 -0.00665541 0)
(0.0112919 -0.00641651 0)
(0.011793 -0.00652487 0)
(0.012231 -0.00683392 0)
(0.0126004 -0.00710607 0)
(0.0128545 -0.00695069 0)
(0.0128847 -0.00574464 0)
(0.0124976 -0.00258393 0)
(0.011386 0.0036253 0)
(0.00932334 0.0136217 0)
(0.00628527 0.0266986 0)
(0.00283489 0.0376259 0)
(0.00025311 0.0300687 0)
(0.000321694 -0.00747824 0)
(0.00204991 -0.0141672 0)
(0.00387068 -0.0156128 0)
(0.00539915 -0.0143781 0)
(0.00646411 -0.0122143 0)
(0.00712378 -0.0101084 0)
(0.00750472 -0.00849888 0)
(0.00771875 -0.00749792 0)
(0.00784136 -0.00705084 0)
(0.00791597 -0.00702289 0)
(0.00796248 -0.00721812 0)
(0.00797945 -0.0073402 0)
(0.00793652 -0.00691001 0)
(0.00775992 -0.00517384 0)
(0.00731701 -0.00107912 0)
(0.00638865 0.006513 0)
(0.004881 0.0180702 0)
(0.00288733 0.0321686 0)
(0.000921378 0.0424336 0)
(-4.80331e-05 0.0318065 0)
(0.000308687 -0.00966015 0)
(0.00166873 -0.0174846 0)
(0.00279541 -0.0184557 0)
(0.00346947 -0.0162583 0)
(0.00367701 -0.0132112 0)
(0.00356786 -0.0104891 0)
(0.00329879 -0.00851984 0)
(0.00297396 -0.00733988 0)
(0.00264722 -0.00682126 0)
(0.00234176 -0.00677834 0)
(0.00206373 -0.00697827 0)
(0.0018039 -0.00708134 0)
(0.00153229 -0.00654114 0)
(0.00119608 -0.00451184 0)
(0.000724556 0.000142333 0)
(8.0758e-05 0.00851635 0)
(-0.000623881 0.0207656 0)
(-0.00115462 0.0348115 0)
(-0.00117945 0.0438013 0)
(-0.000338375 0.0314092 0)
(0.000219178 -0.011237 0)
(0.000710961 -0.0192191 0)
(0.000595998 -0.0192446 0)
(-2.46752e-05 -0.0160461 0)
(-0.000935315 -0.0123333 0)
(-0.00192593 -0.00931309 0)
(-0.00287578 -0.00728904 0)
(-0.00373645 -0.00617486 0)
(-0.00450198 -0.00576623 0)
(-0.00518366 -0.00583784 0)
(-0.00579936 -0.00612876 0)
(-0.0063717 -0.00626652 0)
(-0.00692285 -0.00567426 0)
(-0.00745134 -0.00351685 0)
(-0.00788825 0.00121779 0)
(-0.00799586 0.00933758 0)
(-0.00745657 0.0207604 0)
(-0.00599214 0.0333823 0)
(-0.00363299 0.0408111 0)
(-0.000691925 0.028518 0)
(-2.03789e-05 -0.0113643 0)
(-0.00111382 -0.0180176 0)
(-0.00307159 -0.0167908 0)
(-0.00530606 -0.013014 0)
(-0.00740311 -0.0092864 0)
(-0.00920573 -0.00653008 0)
(-0.0107117 -0.0048473 0)
(-0.01198 -0.0040481 0)
(-0.0130819 -0.00389158 0)
(-0.0140808 -0.00414729 0)
(-0.0150232 -0.00456235 0)
(-0.0159287 -0.00479253 0)
(-0.0167666 -0.00433899 0)
(-0.0174144 -0.00253315 0)
(-0.017597 0.00137264 0)
(-0.016865 0.00794369 0)
(-0.0147835 0.0170938 0)
(-0.0111058 0.0271089 0)
(-0.00622566 0.0328719 0)
(-0.00107671 0.0228516 0)
(-0.000531912 -0.00892997 0)
(-0.00382286 -0.0126594 0)
(-0.00772844 -0.0105976 0)
(-0.0112675 -0.00727887 0)
(-0.0139966 -0.0044981 0)
(-0.0159774 -0.00269042 0)
(-0.0174308 -0.00175689 0)
(-0.0185748 -0.00146714 0)
(-0.0195813 -0.00160912 0)
(-0.0205707 -0.00200955 0)
(-0.0216112 -0.00249895 0)
(-0.0227046 -0.00286193 0)
(-0.0237575 -0.00279851 0)
(-0.0245425 -0.00191494 0)
(-0.0246568 0.00024206 0)
(-0.0234869 0.0040914 0)
(-0.0204536 0.00971005 0)
(-0.015243 0.0161245 0)
(-0.00843405 0.0201778 0)
(-0.00145317 0.014482 0)
(-0.00136665 -0.00296908 0)
(-0.0053412 -0.00335102 0)
(-0.00899946 -0.00223415 0)
(-0.0116328 -0.00112216 0)
(-0.0131897 -0.000393882 0)
(-0.0140188 -1.93245e-05 0)
(-0.0144646 0.000111006 0)
(-0.0147711 8.98321e-05 0)
(-0.015097 -2.29396e-05 0)
(-0.0155437 -0.000192707 0)
(-0.0161676 -0.000395648 0)
(-0.0169743 -0.000602353 0)
(-0.0178983 -0.000763581 0)
(-0.01877 -0.000799363 0)
(-0.0192732 -0.000585769 0)
(-0.0189401 6.51516e-05 0)
(-0.0171475 0.00134678 0)
(-0.0133833 0.00319029 0)
(-0.00791506 0.00483662 0)
(-0.00191855 0.0041407 0)
)
;

boundaryField
{
    leftWall
    {
        type            fixedValue;
        value           uniform (0 0 0);
    }
    rightWall
    {
        type            fixedValue;
        value           uniform (0 0 0);
    }
    topWall
    {
        type            fixedValue;
        value           uniform (0 0 0);
    }
    bottomWall
    {
        type            fixedValue;
        value           uniform (0 0 0);
    }
    frontAndBackPlanes
    {
        type            empty;
    }
}


// ************************************************************************* //
