/*--------------------------------*- C++ -*----------------------------------*\
| =========                 |                                                 |
| \\      /  F ield         | OpenFOAM: The Open Source CFD Toolbox           |
|  \\    /   O peration     | Version:  2506                                  |
|   \\  /    A nd           | Website:  www.openfoam.com                      |
|    \\/     M anipulation  |                                                 |
\*---------------------------------------------------------------------------*/
FoamFile
{
    version     2.0;
    format      ascii;
    arch        "LSB;label=32;scalar=64";
    class       volScalarField;
    location    "102.4";
    object      p;
}
// * * * * * * * * * * * * * * * * * * * * * * * * * * * * * * * * * * * * * //

dimensions      [1 -1 -2 0 0 0 0];

internalField   nonuniform List<scalar> 
200
(
100000
100000
100000
99999.9
99999.9
99999.8
99999.8
99999.8
99999.7
99999.7
99999.7
99999.6
99999.6
99999.5
99999.4
99999.3
99999.2
99999.1
99998.9
99998.8
99733.5
99733.5
99733.5
99733.5
99733.4
99733.4
99733.4
99733.3
99733.3
99733.3
99733.3
99733.2
99733.2
99733.2
99733.1
99733.1
99733.1
99733
99733
99733
99467.1
99467.2
99467.1
99467.1
99467.1
99467.1
99467.1
99467
99467
99467
99467
99467
99467
99467
99466.9
99466.9
99466.9
99466.9
99466.9
99466.9
99201
99201
99201
99201
99200.9
99200.9
99200.9
99200.9
99200.9
99200.9
99200.9
99200.9
99200.9
99200.9
99200.8
99200.8
99200.8
99200.8
99200.9
99200.9
98935
98935
98935
98935
98934.9
98934.9
98934.9
98934.9
98934.9
98934.9
98934.9
98934.9
98934.9
98934.9
98934.9
98934.9
98934.9
98934.9
98934.9
98934.9
98669.2
98669.2
98669.1
98669.1
98669.1
98669.1
98669.1
98669.1
98669.1
98669.1
98669.1
98669.1
98669.1
98669.1
98669.1
98669.1
98669.1
98669.1
98669.1
98669.1
98403.5
98403.5
98403.5
98403.5
98403.4
98403.4
98403.4
98403.4
98403.4
98403.4
98403.4
98403.4
98403.4
98403.4
98403.4
98403.4
98403.4
98403.5
98403.5
98403.5
98138
98138
98137.9
98137.9
98137.9
98137.9
98137.9
98138
98138
98138
98138
98138
98138
98138
98138
98138.1
98138.1
98138.1
98138.2
98138.2
97872.5
97872.5
97872.5
97872.5
97872.6
97872.6
97872.6
97872.7
97872.7
97872.7
97872.8
97872.8
97872.9
97872.9
97873
97873
97873.1
97873.2
97873.2
97873.2
97606.9
97606.9
97607
97607.1
97607.3
97607.4
97607.5
97607.6
97607.6
97607.7
97607.8
97607.9
97608
97608
97608.2
97608.3
97608.4
97608.5
97608.6
97608.6
)
;

boundaryField
{
    leftWall
    {
        type            zeroGradient;
    }
    rightWall
    {
        type            zeroGradient;
    }
    topWall
    {
        type            zeroGradient;
    }
    bottomWall
    {
        type            zeroGradient;
    }
    frontAndBackPlanes
    {
        type            empty;
    }
}


// ************************************************************************* //
