/*--------------------------------*- C++ -*----------------------------------*\
| =========                 |                                                 |
| \\      /  F ield         | OpenFOAM: The Open Source CFD Toolbox           |
|  \\    /   O peration     | Version:  2506                                  |
|   \\  /    A nd           | Website:  www.openfoam.com                      |
|    \\/     M anipulation  |                                                 |
\*---------------------------------------------------------------------------*/
FoamFile
{
    version     2.0;
    format      ascii;
    arch        "LSB;label=32;scalar=64";
    class       volVectorField;
    location    "82.8";
    object      U;
}
// * * * * * * * * * * * * * * * * * * * * * * * * * * * * * * * * * * * * * //

dimensions      [0 1 -1 0 0 0 0];

internalField   nonuniform List<vector> 
200
(
(0.000201971 -0.000743804 0)
(0.00143798 -0.00100279 0)
(0.00293021 -0.000792761 0)
(0.00423321 -0.000498506 0)
(0.00514578 -0.000260104 0)
(0.00574303 -0.000118687 0)
(0.00614829 -7.26446e-05 0)
(0.00648211 -0.000102932 0)
(0.00684357 -0.000189495 0)
(0.00730785 -0.000319112 0)
(0.00793099 -0.000486977 0)
(0.00875474 -0.00069344 0)
(0.00980491 -0.000935089 0)
(0.0110753 -0.00118775 0)
(0.0124827 -0.00137687 0)
(0.0137652 -0.00132465 0)
(0.014324 -0.000662363 0)
(0.0132305 0.00118501 0)
(0.00952474 0.00433075 0)
(0.00288423 0.00611012 0)
(0.000365935 -0.00318061 0)
(0.00247256 -0.00524245 0)
(0.00491791 -0.0050299 0)
(0.00714941 -0.00395485 0)
(0.00888488 -0.00279775 0)
(0.0101406 -0.0019228 0)
(0.0110504 -0.00143617 0)
(0.0117649 -0.00131302 0)
(0.012411 -0.00148015 0)
(0.0130799 -0.00186043 0)
(0.0138264 -0.00238738 0)
(0.0146682 -0.00299487 0)
(0.0155768 -0.00358186 0)
(0.0164527 -0.00394915 0)
(0.0170815 -0.00370745 0)
(0.0170785 -0.00217298 0)
(0.0158302 0.00165517 0)
(0.0126268 0.00854801 0)
(0.00739626 0.0170055 0)
(0.00127318 0.0175429 0)
(0.000406802 -0.00605054 0)
(0.00268114 -0.0102484 0)
(0.00521993 -0.0101126 0)
(0.00751495 -0.00821893 0)
(0.00929755 -0.00605999 0)
(0.0105883 -0.00433086 0)
(0.0115144 -0.00324565 0)
(0.0122095 -0.00277275 0)
(0.0127773 -0.0027823 0)
(0.0132851 -0.00312434 0)
(0.0137645 -0.00365468 0)
(0.0142124 -0.00421802 0)
(0.0145822 -0.00459177 0)
(0.0147635 -0.00439526 0)
(0.0145517 -0.00298488 0)
(0.0136116 0.00059353 0)
(0.011584 0.00732297 0)
(0.00829396 0.0173049 0)
(0.00416788 0.0271735 0)
(0.000499443 0.0237587 0)
(0.000398568 -0.00897774 0)
(0.00252225 -0.0151164 0)
(0.00473839 -0.0148431 0)
(0.0066253 -0.0120334 0)
(0.00799952 -0.00887002 0)
(0.00893019 -0.00632627 0)
(0.00955351 -0.00467368 0)
(0.00998478 -0.0038412 0)
(0.0102981 -0.0036309 0)
(0.0105329 -0.00382662 0)
(0.0107038 -0.00422516 0)
(0.0108052 -0.00460757 0)
(0.0108036 -0.00466106 0)
(0.0106188 -0.00386929 0)
(0.0101026 -0.00142232 0)
(0.00902217 0.00372431 0)
(0.00722392 0.0123519 0)
(0.00470911 0.0239268 0)
(0.00196691 0.0336604 0)
(0.000113483 0.0267331 0)
(0.000367137 -0.0116381 0)
(0.00211508 -0.0191937 0)
(0.00370578 -0.0184699 0)
(0.00488004 -0.01468 0)
(0.00559495 -0.0106187 0)
(0.00598321 -0.0074344 0)
(0.00618337 -0.00537541 0)
(0.00628165 -0.00428958 0)
(0.00631704 -0.00390596 0)
(0.00630338 -0.00396223 0)
(0.00624533 -0.0042276 0)
(0.00614125 -0.00445212 0)
(0.00597324 -0.00426384 0)
(0.00568859 -0.00304614 0)
(0.00517975 0.000124188 0)
(0.00432184 0.00628394 0)
(0.00307464 0.0159989 0)
(0.0015649 0.0281424 0)
(0.000211991 0.0370329 0)
(-0.000164834 0.0276027 0)
(0.000300802 -0.0137811 0)
(0.00140421 -0.0219663 0)
(0.00205059 -0.0204544 0)
(0.00224345 -0.0157333 0)
(0.00212789 -0.0110264 0)
(0.00188365 -0.00749659 0)
(0.00161866 -0.00527823 0)
(0.00136833 -0.00411342 0)
(0.00113193 -0.0036747 0)
(0.00090242 -0.00368392 0)
(0.000676478 -0.00390735 0)
(0.000448609 -0.00407669 0)
(0.000199947 -0.0037704 0)
(-0.000110227 -0.00229784 0)
(-0.000538535 0.00130832 0)
(-0.00106516 0.007981 0)
(-0.00157052 0.0179975 0)
(-0.00180468 0.0297484 0)
(-0.00148215 0.037317 0)
(-0.000367697 0.0266528 0)
(0.000172579 -0.0149837 0)
(0.000199916 -0.0227001 0)
(-0.000521208 -0.020129 0)
(-0.00158414 -0.0147345 0)
(-0.00266057 -0.00983706 0)
(-0.00359079 -0.00638772 0)
(-0.00434437 -0.00432478 0)
(-0.00495338 -0.00329522 0)
(-0.0054604 -0.0029541 0)
(-0.00589674 -0.00303497 0)
(-0.00628332 -0.00330741 0)
(-0.00663949 -0.0034853 0)
(-0.00698443 -0.00312477 0)
(-0.00731747 -0.00155776 0)
(-0.00757405 0.00205924 0)
(-0.00755789 0.00844545 0)
(-0.00698911 0.0176608 0)
(-0.00559144 0.0280276 0)
(-0.00336746 0.0341337 0)
(-0.000626719 0.0237432 0)
(-0.000122888 -0.0144776 0)
(-0.00182114 -0.0202653 0)
(-0.00431739 -0.0166883 0)
(-0.00678893 -0.0113067 0)
(-0.00881103 -0.00692827 0)
(-0.0103304 -0.00408969 0)
(-0.0114471 -0.00253594 0)
(-0.0122874 -0.00187249 0)
(-0.012956 -0.00177958 0)
(-0.0135267 -0.00202558 0)
(-0.0140471 -0.00240432 0)
(-0.0145397 -0.00265611 0)
(-0.0149872 -0.0023989 0)
(-0.0152985 -0.00110075 0)
(-0.0152541 0.00186064 0)
(-0.0145101 0.00700173 0)
(-0.0126803 0.0143198 0)
(-0.00952042 0.02244 0)
(-0.00533038 0.0270957 0)
(-0.00091187 0.0187441 0)
(-0.000718413 -0.0111433 0)
(-0.00472874 -0.0137001 0)
(-0.00896821 -0.00988187 0)
(-0.0124003 -0.00566786 0)
(-0.0147232 -0.00273242 0)
(-0.0161732 -0.0011042 0)
(-0.0170717 -0.000405498 0)
(-0.0176779 -0.000283554 0)
(-0.0181701 -0.000495767 0)
(-0.0186548 -0.000884914 0)
(-0.0191862 -0.00132562 0)
(-0.0197702 -0.00166562 0)
(-0.0203414 -0.00168245 0)
(-0.0207303 -0.00106646 0)
(-0.0206232 0.000560341 0)
(-0.0195365 0.00356903 0)
(-0.0169663 0.00803531 0)
(-0.0126262 0.0131835 0)
(-0.00697113 0.0164234 0)
(-0.00119158 0.0117265 0)
(-0.00176587 -0.00378291 0)
(-0.00642818 -0.00357335 0)
(-0.0100462 -0.00189483 0)
(-0.0122046 -0.000607844 0)
(-0.0131715 6.57099e-05 0)
(-0.0134745 0.000322299 0)
(-0.0135034 0.000350233 0)
(-0.0134745 0.000262007 0)
(-0.0134987 0.000119813 0)
(-0.0136438 -4.49266e-05 0)
(-0.0139484 -0.000219052 0)
(-0.0144129 -0.000387919 0)
(-0.0149858 -0.000520016 0)
(-0.015536 -0.000556494 0)
(-0.0158138 -0.00039784 0)
(-0.0154481 0.000113068 0)
(-0.0139335 0.00111714 0)
(-0.010844 0.00256643 0)
(-0.00638954 0.00386576 0)
(-0.00153539 0.00330206 0)
)
;

boundaryField
{
    leftWall
    {
        type            fixedValue;
        value           uniform (0 0 0);
    }
    rightWall
    {
        type            fixedValue;
        value           uniform (0 0 0);
    }
    topWall
    {
        type            fixedValue;
        value           uniform (0 0 0);
    }
    bottomWall
    {
        type            fixedValue;
        value           uniform (0 0 0);
    }
    frontAndBackPlanes
    {
        type            empty;
    }
}


// ************************************************************************* //
