/*--------------------------------*- C++ -*----------------------------------*\
| =========                 |                                                 |
| \\      /  F ield         | OpenFOAM: The Open Source CFD Toolbox           |
|  \\    /   O peration     | Version:  2506                                  |
|   \\  /    A nd           | Website:  www.openfoam.com                      |
|    \\/     M anipulation  |                                                 |
\*---------------------------------------------------------------------------*/
FoamFile
{
    version     2.0;
    format      ascii;
    arch        "LSB;label=32;scalar=64";
    class       surfaceScalarField;
    location    "119";
    object      phi;
}
// * * * * * * * * * * * * * * * * * * * * * * * * * * * * * * * * * * * * * //

dimensions      [1 0 -1 0 0 0 0];

oriented        oriented;

internalField   nonuniform List<scalar> 
370
(
0.000319099
-0.000354279
0.000842345
-0.000523184
0.00129597
-0.000453535
0.00160775
-0.000311674
0.00178684
-0.000178963
0.00187351
-8.65275e-05
0.0019122
-3.85487e-05
0.0019397
-2.7341e-05
0.0019826
-4.27437e-05
0.00205874
-7.59614e-05
0.00217921
-0.000120291
0.00235022
-0.000170827
0.00257223
-0.000221828
0.00283397
-0.000261537
0.00309866
-0.000264491
0.00327851
-0.000179653
0.00320171
7.70104e-05
0.00265549
0.000546429
0.00143987
0.00121579
0.00143997
0.00044093
-0.000795177
0.00118099
-0.00126316
0.00188683
-0.00115926
0.00243112
-0.000855822
0.00280061
-0.00054829
0.00303163
-0.00031739
0.00317389
-0.000180639
0.00327274
-0.000126027
0.00336196
-0.000131789
0.00346256
-0.000176379
0.00358424
-0.000241785
0.00372565
-0.000312051
0.00387167
-0.000367658
0.00398643
-0.000376099
0.00400193
-0.00027979
0.00381217
1.03064e-05
0.00327802
0.000611375
0.00226847
0.00155618
0.000915629
0.00256881
0.00235569
0.000425569
-0.0012207
0.00111869
-0.00195616
0.00177691
-0.00181732
0.00228921
-0.00136794
0.00264645
-0.000905341
0.00288076
-0.000551503
0.0030328
-0.00033248
0.0031372
-0.000230228
0.00321794
-0.000212331
0.00328834
-0.000246577
0.0033521
-0.00030535
0.00340323
-0.000362977
0.00342331
-0.000387526
0.00337637
-0.000328957
0.00320483
-0.000108038
0.00283338
0.000381977
0.00221173
0.00123324
0.00135095
0.00241717
0.000456083
0.00346385
0.00281185
0.00036492
-0.00158558
0.000921542
-0.00251265
0.00141513
-0.00231073
0.00177351
-0.0017261
0.00200837
-0.00113999
0.00215599
-0.000698898
0.00224995
-0.000426218
0.0023128
-0.00029286
0.00235658
-0.0002559
0.00238598
-0.000275754
0.00240067
-0.000319823
0.00239515
-0.000357241
0.0023558
-0.000347959
0.00225678
-0.00022971
0.00205953
8.94335e-05
0.00172706
0.000714681
0.00124475
0.00171578
0.000667214
0.00299492
0.000168553
0.00396269
0.00298048
0.000281902
-0.00186743
0.000650731
-0.00288134
0.000921945
-0.00258174
0.00107661
-0.00188055
0.0011518
-0.00121494
0.00118658
-0.00073344
0.00120467
-0.000444085
0.00121544
-0.000303399
0.00121983
-0.000260062
0.00121636
-0.000272071
0.00120332
-0.000306561
0.00117735
-0.000331039
0.00112984
-0.000300227
0.0010439
-0.000143551
0.000896249
0.000237318
0.000672102
0.000939061
0.000384677
0.00200344
0.000105721
0.00327409
-4.10629e-05
0.00410965
0.00293949
0.000173735
-0.0020411
0.000300443
-0.00300789
0.000303692
-0.00258478
0.000230343
-0.00180697
0.000137897
-0.00112226
5.77785e-05
-0.000653092
-2.68432e-06
-0.000383398
-4.84215e-05
-0.000257441
-8.59823e-05
-0.000222282
-0.00011995
-0.000237885
-0.000152933
-0.000273359
-0.00018824
-0.000295514
-0.000232214
-0.000256032
-0.000293324
-8.22151e-05
-0.000373859
0.000318085
-0.000460617
0.00102605
-0.000510935
0.00205399
-0.000453636
0.003217
-0.000241429
0.0038976
0.00269812
1.46131e-06
-0.0020425
-0.000186933
-0.00281933
-0.000499197
-0.0022723
-0.000819597
-0.00148634
-0.00108484
-0.0008568
-0.00128261
-0.000455095
-0.00142549
-0.000240306
-0.00153076
-0.000151955
-0.00161213
-0.000140709
-0.00167804
-0.000171763
-0.00173388
-0.000217306
-0.00178343
-0.000245754
-0.00182724
-0.000212008
-0.001857
-5.22331e-05
-0.00184425
0.000305559
-0.00174345
0.000925472
-0.00149266
0.00180342
-0.00104376
0.0027683
-0.00044489
0.00329887
0.00225329
-0.000265804
-0.00177663
-0.000883982
-0.00220098
-0.00155744
-0.00159864
-0.00211984
-0.000923716
-0.00253102
-0.000445408
-0.00281304
-0.000172868
-0.0030039
-4.92424e-05
-0.00313711
-1.85352e-05
-0.00323732
-4.02977e-05
-0.00332055
-8.83435e-05
-0.0033951
-0.000142555
-0.00346048
-0.000180188
-0.00350311
-0.000169184
-0.00348927
-6.58764e-05
-0.0033631
0.000179581
-0.00305062
0.000613189
-0.00248127
0.00123426
-0.00163629
0.00192348
-0.00065285
0.00231556
0.00160049
-0.000687194
-0.00108936
-0.00180218
-0.00108583
-0.00275764
-0.000642967
-0.00340405
-0.000277091
-0.00378465
-6.46053e-05
-0.00399192
3.4605e-05
-0.00410462
6.36474e-05
-0.00417375
5.07873e-05
-0.00423232
1.84471e-05
-0.00429971
-2.07851e-05
-0.0043815
-6.0592e-05
-0.00446932
-9.22054e-05
-0.00453589
-0.00010246
-0.00452863
-7.29819e-05
-0.00437091
2.20212e-05
-0.00395896
0.000201382
-0.00320542
0.000480857
-0.00209639
0.000814585
-0.000821546
0.00104081
0.000778985
-0.00108927
-0.00217493
-0.00281769
-0.00309458
-0.00315898
-0.00312419
-0.00306036
-0.00300941
-0.0029908
-0.00301143
-0.00307188
-0.00316395
-0.00326628
-0.00333914
-0.003317
-0.00311552
-0.00263456
-0.00181989
-0.000779013
)
;

boundaryField
{
    leftWall
    {
        type            calculated;
        value           nonuniform List<scalar> 10(0 0 0 0 0 0 -4.33681e-19 0 0 0);
    }
    rightWall
    {
        type            calculated;
        value           nonuniform List<scalar> 10(0 0 0 -4.33681e-19 0 0 0 0 0 0);
    }
    topWall
    {
        type            calculated;
        value           uniform 0;
    }
    bottomWall
    {
        type            calculated;
        value           uniform 0;
    }
    frontAndBackPlanes
    {
        type            empty;
    }
}


// ************************************************************************* //
