/*--------------------------------*- C++ -*----------------------------------*\
| =========                 |                                                 |
| \\      /  F ield         | OpenFOAM: The Open Source CFD Toolbox           |
|  \\    /   O peration     | Version:  2506                                  |
|   \\  /    A nd           | Website:  www.openfoam.com                      |
|    \\/     M anipulation  |                                                 |
\*---------------------------------------------------------------------------*/
FoamFile
{
    version     2.0;
    format      ascii;
    arch        "LSB;label=32;scalar=64";
    class       volScalarField;
    location    "22.2";
    object      T;
}
// * * * * * * * * * * * * * * * * * * * * * * * * * * * * * * * * * * * * * //

dimensions      [0 0 0 1 0 0 0];

internalField   nonuniform List<scalar> 
200
(
273.15
273.149
273.148
273.147
273.147
273.146
273.146
273.146
273.146
273.146
273.146
273.146
273.146
273.147
273.15
273.157
273.178
273.239
273.402
273.789
273.149
273.148
273.146
273.145
273.144
273.144
273.143
273.143
273.143
273.143
273.143
273.143
273.143
273.144
273.146
273.151
273.17
273.229
273.402
273.806
273.149
273.146
273.144
273.142
273.14
273.139
273.139
273.138
273.138
273.139
273.139
273.139
273.139
273.14
273.141
273.147
273.169
273.235
273.422
273.83
273.148
273.144
273.141
273.138
273.136
273.135
273.134
273.135
273.135
273.136
273.137
273.137
273.137
273.137
273.139
273.146
273.172
273.248
273.447
273.854
273.147
273.142
273.137
273.133
273.131
273.13
273.131
273.133
273.136
273.139
273.141
273.141
273.14
273.139
273.141
273.15
273.182
273.27
273.481
273.879
273.146
273.139
273.133
273.129
273.127
273.128
273.132
273.139
273.148
273.155
273.159
273.159
273.156
273.152
273.154
273.167
273.208
273.31
273.532
273.908
273.145
273.136
273.129
273.125
273.125
273.131
273.143
273.16
273.178
273.193
273.201
273.202
273.198
273.196
273.202
273.224
273.276
273.385
273.596
273.934
273.144
273.133
273.125
273.122
273.127
273.142
273.168
273.201
273.234
273.261
273.279
273.289
273.295
273.301
273.313
273.34
273.394
273.495
273.676
273.963
273.143
273.13
273.121
273.12
273.132
273.159
273.202
273.254
273.308
273.356
273.394
273.424
273.446
273.463
273.482
273.511
273.559
273.64
273.778
273.999
273.142
273.128
273.118
273.116
273.126
273.155
273.202
273.264
273.333
273.401
273.463
273.516
273.562
273.601
273.637
273.675
273.722
273.788
273.887
274.039
)
;

boundaryField
{
    leftWall
    {
        type            fixedValue;
        value           uniform 273.15;
    }
    rightWall
    {
        type            customNeumannDirichletCoupledBoundary;
        refValue        nonuniform List<scalar> 10(274.125 274.125 274.127 274.129 274.13 274.132 274.134 274.136 274.138 274.14);
        refGradient     uniform 0;
        valueFraction   uniform 1;
        source          uniform 0;
        value           nonuniform List<scalar> 10(274.125 274.125 274.127 274.129 274.13 274.132 274.134 274.136 274.138 274.14);
        kappaMethod     fluidThermo;
    }
    topWall
    {
        type            zeroGradient;
    }
    bottomWall
    {
        type            zeroGradient;
    }
    frontAndBackPlanes
    {
        type            empty;
    }
}


// ************************************************************************* //
