/*--------------------------------*- C++ -*----------------------------------*\
| =========                 |                                                 |
| \\      /  F ield         | OpenFOAM: The Open Source CFD Toolbox           |
|  \\    /   O peration     | Version:  2506                                  |
|   \\  /    A nd           | Website:  www.openfoam.com                      |
|    \\/     M anipulation  |                                                 |
\*---------------------------------------------------------------------------*/
FoamFile
{
    version     2.0;
    format      ascii;
    arch        "LSB;label=32;scalar=64";
    class       volScalarField;
    location    "35.8";
    object      p_rgh;
}
// * * * * * * * * * * * * * * * * * * * * * * * * * * * * * * * * * * * * * //

dimensions      [1 -1 -2 0 0 0 0];

internalField   nonuniform List<scalar> 
200
(
100000
100000
100000
100000
100000
100000
100000
100000
100000
100000
100000
100000
99999.9
99999.8
99999.8
99999.7
99999.5
99999.2
99998.8
99998.2
100000
100000
100000
100000
100000
100000
100000
100000
100000
100000
100000
100000
99999.9
99999.9
99999.8
99999.8
99999.6
99999.3
99998.6
99997
100000
100000
100000
100000
100000
100000
100000
100000
100000
100000
100000
99999.9
99999.9
99999.9
99999.9
99999.8
99999.7
99999.2
99998
99995.3
100000
100000
100000
100000
100000
99999.9
99999.9
99999.9
99999.9
99999.8
99999.8
99999.9
99999.9
99999.9
99999.9
99999.9
99999.6
99998.9
99997
99993.3
100000
100000
100000
99999.9
99999.8
99999.7
99999.6
99999.6
99999.5
99999.6
99999.6
99999.7
99999.7
99999.8
99999.9
99999.8
99999.4
99998.4
99995.8
99991.2
100000
100000
99999.9
99999.6
99999.4
99999.2
99999
99999
99999
99999
99999.1
99999.3
99999.4
99999.6
99999.6
99999.5
99998.9
99997.4
99994.3
99989
100001
100000
99999.7
99999.1
99998.6
99998.3
99998.1
99998.1
99998.1
99998.1
99998.2
99998.4
99998.6
99998.7
99998.7
99998.4
99997.6
99995.9
99992.4
99986.9
100001
100000
99999.3
99998.4
99997.6
99997.1
99996.8
99996.6
99996.5
99996.4
99996.4
99996.4
99996.4
99996.5
99996.4
99996.1
99995.3
99993.5
99990.2
99984.9
100001
100000
99998.8
99997.4
99996.3
99995.4
99994.8
99994.3
99994
99993.6
99993.4
99993.2
99993
99992.9
99992.7
99992.5
99991.8
99990.3
99987.6
99983
100001
100000
99998.6
99997
99995.6
99994.4
99993.5
99992.7
99992
99991.4
99990.9
99990.4
99989.9
99989.5
99989.1
99988.6
99987.9
99986.8
99984.8
99981.5
)
;

boundaryField
{
    leftWall
    {
        type            fixedFluxPressure;
        gradient        nonuniform List<scalar> 10(-0.0214978 -0.0321213 0.0602118 0.398306 1.21245 2.8397 5.71449 10.5198 17.1166 20.6617);
        value           nonuniform List<scalar> 10(100000 100000 100000 100000 100000 100000 100001 100001 100002 100002);
    }
    rightWall
    {
        type            fixedFluxPressure;
        gradient        nonuniform List<scalar> 10(-17.7286 -50.2838 -77.2603 -99.1546 -115.336 -125.805 -132.048 -129.941 -114.6 -87.2865);
        value           nonuniform List<scalar> 10(99997.8 99995.8 99993.4 99990.9 99988.3 99985.9 99983.6 99981.7 99980.2 99979.3);
    }
    topWall
    {
        type            fixedFluxPressure;
        gradient        uniform 0;
        value           nonuniform List<scalar> 
20
(
100000
100000
100000
100000
100000
100000
100000
100000
100000
100000
100000
100000
99999.9
99999.8
99999.8
99999.7
99999.5
99999.2
99998.8
99998.2
)
;
    }
    bottomWall
    {
        type            fixedFluxPressure;
        gradient        uniform 0;
        value           nonuniform List<scalar> 
20
(
100001
100000
99998.6
99997
99995.6
99994.4
99993.5
99992.7
99992
99991.4
99990.9
99990.4
99989.9
99989.5
99989.1
99988.6
99987.9
99986.8
99984.8
99981.5
)
;
    }
    frontAndBackPlanes
    {
        type            empty;
    }
}


// ************************************************************************* //
