/*--------------------------------*- C++ -*----------------------------------*\
| =========                 |                                                 |
| \\      /  F ield         | OpenFOAM: The Open Source CFD Toolbox           |
|  \\    /   O peration     | Version:  2506                                  |
|   \\  /    A nd           | Website:  www.openfoam.com                      |
|    \\/     M anipulation  |                                                 |
\*---------------------------------------------------------------------------*/
FoamFile
{
    version     2.0;
    format      ascii;
    arch        "LSB;label=32;scalar=64";
    class       volVectorField;
    location    "35.8";
    object      U;
}
// * * * * * * * * * * * * * * * * * * * * * * * * * * * * * * * * * * * * * //

dimensions      [0 1 -1 0 0 0 0];

internalField   nonuniform List<vector> 
200
(
(-0.000221048 -0.00012465 0)
(-2.09017e-07 -0.000279197 0)
(0.000789904 -0.000383038 0)
(0.00185803 -0.000475685 0)
(0.00301361 -0.000517013 0)
(0.00419209 -0.000513457 0)
(0.00533081 -0.000491714 0)
(0.00640365 -0.000476997 0)
(0.00742025 -0.000489011 0)
(0.00841501 -0.000541734 0)
(0.00943519 -0.000643621 0)
(0.010529 -0.000796795 0)
(0.0117305 -0.000993117 0)
(0.0130368 -0.00120334 0)
(0.0143656 -0.00135352 0)
(0.0154632 -0.00127264 0)
(0.0157716 -0.000596386 0)
(0.0143772 0.00127717 0)
(0.0102895 0.00455092 0)
(0.00309605 0.00651933 0)
(7.45046e-05 -0.000839075 0)
(0.00102361 -0.00228785 0)
(0.00271512 -0.00338458 0)
(0.00483591 -0.00405573 0)
(0.00710188 -0.0043046 0)
(0.00932482 -0.00424733 0)
(0.011398 -0.00402877 0)
(0.0132795 -0.00377825 0)
(0.014973 -0.00359117 0)
(0.0165064 -0.00352294 0)
(0.0179101 -0.00358631 0)
(0.0191941 -0.00374459 0)
(0.020324 -0.00389438 0)
(0.0211895 -0.00382924 0)
(0.0215676 -0.00317355 0)
(0.0210723 -0.00127872 0)
(0.019103 0.00283538 0)
(0.0149874 0.00998006 0)
(0.00871806 0.0187706 0)
(0.00151055 0.0192495 0)
(0.000179201 -0.00221089 0)
(0.0016736 -0.00567446 0)
(0.00396799 -0.00799372 0)
(0.00663685 -0.00915616 0)
(0.00929419 -0.00937836 0)
(0.0117273 -0.00898181 0)
(0.0138512 -0.00827991 0)
(0.0156581 -0.00751763 0)
(0.0171799 -0.00685172 0)
(0.0184587 -0.00634955 0)
(0.0195231 -0.00598951 0)
(0.0203657 -0.00565243 0)
(0.0209208 -0.00509798 0)
(0.0210421 -0.00392319 0)
(0.0204819 -0.00150576 0)
(0.0188609 0.0030283 0)
(0.0158501 0.0105461 0)
(0.0112974 0.0211776 0)
(0.00576616 0.0314937 0)
(0.000755055 0.0271878 0)
(0.00024239 -0.00418972 0)
(0.0020649 -0.0100458 0)
(0.0046154 -0.0134333 0)
(0.00734264 -0.0147029 0)
(0.00981377 -0.0144545 0)
(0.0118485 -0.0133305 0)
(0.0134304 -0.0118616 0)
(0.0146237 -0.0104093 0)
(0.0155184 -0.00916862 0)
(0.016196 -0.00818818 0)
(0.0167073 -0.0073833 0)
(0.0170552 -0.00653078 0)
(0.0171787 -0.0052452 0)
(0.0169391 -0.00294703 0)
(0.016087 0.00115028 0)
(0.0143721 0.00790336 0)
(0.0115864 0.0179593 0)
(0.00776325 0.0306785 0)
(0.00355672 0.0409297 0)
(0.000354864 0.0319969 0)
(0.000294621 -0.00649194 0)
(0.0021931 -0.0147091 0)
(0.00456 -0.0187413 0)
(0.00680626 -0.0195707 0)
(0.00854221 -0.0183694 0)
(0.00968518 -0.0161992 0)
(0.0103281 -0.0138263 0)
(0.0106261 -0.0117019 0)
(0.010731 -0.010016 0)
(0.0107586 -0.00875796 0)
(0.0107748 -0.00774995 0)
(0.010787 -0.00664805 0)
(0.0107397 -0.00492025 0)
(0.0105085 -0.00182996 0)
(0.00986507 0.00351845 0)
(0.00862723 0.0119269 0)
(0.00666782 0.0237395 0)
(0.00410444 0.0375868 0)
(0.00152583 0.0470768 0)
(3.62726e-05 0.0344768 0)
(0.000307322 -0.00879553 0)
(0.00188137 -0.0188419 0)
(0.00347426 -0.0228275 0)
(0.00461537 -0.0226381 0)
(0.00508312 -0.0201429 0)
(0.00495644 -0.0168511 0)
(0.00445219 -0.0137168 0)
(0.00379512 -0.0112077 0)
(0.00315856 -0.00944032 0)
(0.00264724 -0.00829376 0)
(0.00230053 -0.0074685 0)
(0.00210127 -0.00649267 0)
(0.00198495 -0.00470029 0)
(0.00184977 -0.00122711 0)
(0.00154134 0.00488938 0)
(0.000995914 0.0143332 0)
(0.000238126 0.0271066 0)
(-0.000509674 0.0412009 0)
(-0.000854538 0.0494454 0)
(-0.000301248 0.0346044 0)
(0.000231317 -0.0105039 0)
(0.000856662 -0.0211889 0)
(0.000921893 -0.0242859 0)
(0.000292854 -0.0226928 0)
(-0.000933894 -0.0189229 0)
(-0.00248399 -0.0148434 0)
(-0.00408747 -0.0114496 0)
(-0.00555289 -0.00908583 0)
(-0.00677743 -0.00769961 0)
(-0.00773192 -0.00701891 0)
(-0.00843431 -0.00662857 0)
(-0.00892518 -0.00597411 0)
(-0.00924567 -0.00433972 0)
(-0.00940934 -0.000862147 0)
(-0.00936062 0.00532232 0)
(-0.00896111 0.0146988 0)
(-0.00800226 0.0269624 0)
(-0.00625639 0.0398827 0)
(-0.00374509 0.046702 0)
(-0.000717719 0.0318591 0)
(-2.04792e-05 -0.0106313 0)
(-0.00116324 -0.0200501 0)
(-0.00338675 -0.0215061 0)
(-0.00622173 -0.0186843 0)
(-0.00916944 -0.0144042 0)
(-0.0118996 -0.0104156 0)
(-0.0142577 -0.00749214 0)
(-0.0162157 -0.00576188 0)
(-0.0178192 -0.00501856 0)
(-0.0191394 -0.00490925 0)
(-0.0202366 -0.00500187 0)
(-0.0211298 -0.00478227 0)
(-0.0217688 -0.00363516 0)
(-0.022001 -0.000860734 0)
(-0.021506 0.00421424 0)
(-0.0199563 0.0119795 0)
(-0.0169968 0.0220966 0)
(-0.012478 0.0326124 0)
(-0.00687906 0.0380044 0)
(-0.00118151 0.025789 0)
(-0.000501882 -0.00808483 0)
(-0.00394121 -0.0140818 0)
(-0.00857011 -0.0139397 0)
(-0.0132346 -0.0109992 0)
(-0.0171796 -0.00750688 0)
(-0.0202183 -0.00465454 0)
(-0.0224741 -0.00283994 0)
(-0.0241813 -0.00200875 0)
(-0.025575 -0.00191631 0)
(-0.0268332 -0.00226448 0)
(-0.0280474 -0.00274197 0)
(-0.0292038 -0.0030137 0)
(-0.0301629 -0.00269858 0)
(-0.0306373 -0.00136324 0)
(-0.0301533 0.00145515 0)
(-0.0281164 0.00613739 0)
(-0.023984 0.0125574 0)
(-0.0175512 0.0195046 0)
(-0.00956574 0.0234839 0)
(-0.00163165 0.0164354 0)
(-0.00109016 -0.0024593 0)
(-0.0049788 -0.00363584 0)
(-0.00947896 -0.00309679 0)
(-0.0133188 -0.00200586 0)
(-0.0159535 -0.000989703 0)
(-0.0175099 -0.000286553 0)
(-0.0183432 7.78152e-05 0)
(-0.0188109 0.000166504 0)
(-0.019192 6.19814e-05 0)
(-0.0196727 -0.000161437 0)
(-0.020349 -0.000441092 0)
(-0.0212245 -0.000716598 0)
(-0.0221998 -0.000915853 0)
(-0.0230466 -0.000939782 0)
(-0.0233747 -0.000637514 0)
(-0.022645 0.000220167 0)
(-0.0201829 0.00177897 0)
(-0.0155074 0.00388787 0)
(-0.00903666 0.00565241 0)
(-0.00216562 0.00469946 0)
)
;

boundaryField
{
    leftWall
    {
        type            fixedValue;
        value           uniform (0 0 0);
    }
    rightWall
    {
        type            fixedValue;
        value           uniform (0 0 0);
    }
    topWall
    {
        type            fixedValue;
        value           uniform (0 0 0);
    }
    bottomWall
    {
        type            fixedValue;
        value           uniform (0 0 0);
    }
    frontAndBackPlanes
    {
        type            empty;
    }
}


// ************************************************************************* //
