/*--------------------------------*- C++ -*----------------------------------*\
| =========                 |                                                 |
| \\      /  F ield         | OpenFOAM: The Open Source CFD Toolbox           |
|  \\    /   O peration     | Version:  2506                                  |
|   \\  /    A nd           | Website:  www.openfoam.com                      |
|    \\/     M anipulation  |                                                 |
\*---------------------------------------------------------------------------*/
FoamFile
{
    version     2.0;
    format      ascii;
    arch        "LSB;label=32;scalar=64";
    class       surfaceScalarField;
    location    "136.2";
    object      phi;
}
// * * * * * * * * * * * * * * * * * * * * * * * * * * * * * * * * * * * * * //

dimensions      [1 0 -1 0 0 0 0];

oriented        oriented;

internalField   nonuniform List<scalar> 
370
(
0.000370606
-0.000398922
0.000951207
-0.000580551
0.00144694
-0.00049566
0.00177986
-0.000332833
0.00196271
-0.000182746
0.00204159
-7.87792e-05
0.00206624
-2.45235e-05
0.00207686
-1.0499e-05
0.00210174
-2.47439e-05
0.00215982
-5.79368e-05
0.00226224
-0.00010228
0.00241477
-0.000152376
0.00261729
-0.000202355
0.00285804
-0.000240585
0.00310016
-0.000241956
0.00325626
-0.000155924
0.00316176
9.46774e-05
0.00260711
0.000554822
0.00140472
0.00120254
0.0014048
0.00048203
-0.000880925
0.00128189
-0.00138034
0.00203508
-0.00124875
0.00260614
-0.000903773
0.00298356
-0.000560042
0.00320873
-0.000303822
0.0033364
-0.000152054
0.00341602
-8.99797e-05
0.00348425
-9.28386e-05
0.00356315
-0.000136687
0.00366281
-0.000201791
0.00378182
-0.000271232
0.00390484
-0.000325222
0.00399613
-0.000331706
0.00398892
-0.000234589
0.00377869
5.4485e-05
0.00323162
0.000641919
0.00222553
0.00156109
0.000894009
0.00253421
0.00229889
0.000449377
-0.00133027
0.00117462
-0.00210549
0.00185536
-0.00192937
0.00237703
-0.00142529
0.00273288
-0.000915738
0.00295879
-0.000529577
0.00309865
-0.000291743
0.00318922
-0.000180389
0.00325568
-0.000159136
0.0033118
-0.000192652
0.00336137
-0.000251194
0.00339823
-0.000307924
0.00340385
-0.000330683
0.00334255
-0.000270232
0.00315771
-4.95801e-05
0.00278003
0.000432348
0.00215962
0.0012625
0.00131217
0.00240871
0.000439842
0.00340669
0.00273879
0.0003731
-0.00170333
0.000934417
-0.0026667
0.0014241
-0.0024189
0.00177229
-0.00177332
0.00199467
-0.00113794
0.00213044
-0.000665162
0.00221455
-0.000375673
0.00226963
-0.000235295
0.00230724
-0.000196569
0.00233148
-0.000216719
0.00234155
-0.000261092
0.00233158
-0.000297776
0.00228779
-0.000286714
0.00218482
-0.000167084
0.00198584
0.000149586
0.00165707
0.000761294
0.00118609
0.00173366
0.000628644
0.00296633
0.000154442
0.00388103
0.0028933
0.00027754
-0.00198083
0.000629492
-0.00301853
0.00087741
-0.00266666
0.00100932
-0.00190505
0.00106664
-0.00119506
0.00108998
-0.00068832
0.00110248
-0.000387983
0.00111159
-0.000244225
0.00111678
-0.00020158
0.00111547
-0.000215232
0.00110523
-0.000250674
0.00108228
-0.000274641
0.0010379
-0.000242156
0.000955745
-8.47514e-05
0.00081444
0.000291075
0.000600526
0.000975395
0.000329597
0.00200478
7.29517e-05
0.00322315
-5.2011e-05
0.00400613
0.00284134
0.000160272
-0.00214105
0.000256709
-0.00311485
0.000227293
-0.00263708
0.000128563
-0.00180614
2.08476e-05
-0.00108716
-6.62003e-05
-0.000601089
-0.000127426
-0.000326578
-0.000169886
-0.000201587
-0.000202077
-0.000169214
-0.000229587
-0.000187547
-0.000255621
-0.000224466
-0.000283729
-0.000246359
-0.000320019
-0.00020569
-0.000372448
-3.21426e-05
-0.000441416
0.000360228
-0.000513428
0.00104759
-0.000546014
0.00203755
-0.00047031
0.00314762
-0.000244195
0.00378015
0.0025972
-1.59403e-05
-0.00212506
-0.000239109
-0.00289155
-0.000583158
-0.00229286
-0.000923765
-0.00146535
-0.00119762
-0.000813124
-0.00139544
-0.000403102
-0.00153361
-0.000188233
-0.00163162
-0.000103408
-0.00170402
-9.66474e-05
-0.00176024
-0.000131155
-0.0018061
-0.000178443
-0.00184524
-0.000207046
-0.00187759
-0.000173175
-0.0018945
-1.50578e-05
-0.00186672
0.00033262
-0.00175097
0.000932029
-0.00148811
0.00177486
-0.00103339
0.00269305
-0.000437318
0.0031842
0.00215993
-0.000286172
-0.00183883
-0.000935341
-0.00224224
-0.00163135
-0.00159668
-0.00220297
-0.000893565
-0.0026124
-0.000403528
-0.00288608
-0.000129254
-0.00306514
-9.00773e-06
-0.00318452
1.61343e-05
-0.00327061
-1.03952e-05
-0.00333986
-6.17524e-05
-0.00340062
-0.000117528
-0.00345202
-0.000155485
-0.00348023
-0.000144817
-0.00345115
-4.39781e-05
-0.00331203
0.00019365
-0.00299159
0.000611741
-0.00242331
0.00120674
-0.00159163
0.0018615
-0.00063229
0.00222495
0.00152768
-0.000712201
-0.00112657
-0.00185425
-0.00110005
-0.0028178
-0.000632966
-0.00345568
-0.000255517
-0.00381693
-4.21164e-05
-0.00400477
5.8743e-05
-0.00409643
8.28046e-05
-0.00414625
6.6096e-05
-0.00418771
3.12094e-05
-0.00423893
-1.03975e-05
-0.0043055
-5.08239e-05
-0.00437832
-8.25327e-05
-0.00443028
-9.27323e-05
-0.00441015
-6.39888e-05
-0.00424393
2.75512e-05
-0.00383273
0.000200663
-0.003094
0.000468112
-0.00201722
0.000784827
-0.000787817
0.000995624
0.000739891
-0.0011265
-0.00222642
-0.00285922
-0.00311458
-0.00315654
-0.00309765
-0.0030147
-0.00294847
-0.00291713
-0.00292741
-0.00297811
-0.00306054
-0.00315317
-0.00321706
-0.00318942
-0.00298867
-0.00252048
-0.00173559
-0.000739913
)
;

boundaryField
{
    leftWall
    {
        type            calculated;
        value           nonuniform List<scalar> 10(0 0 0 0 2.1684e-19 0 0 0 0 -8.67362e-19);
    }
    rightWall
    {
        type            calculated;
        value           nonuniform List<scalar> 10(0 0 0 0 4.33681e-19 0 0 0 0 0);
    }
    topWall
    {
        type            calculated;
        value           uniform 0;
    }
    bottomWall
    {
        type            calculated;
        value           uniform 0;
    }
    frontAndBackPlanes
    {
        type            empty;
    }
}


// ************************************************************************* //
