/*--------------------------------*- C++ -*----------------------------------*\
| =========                 |                                                 |
| \\      /  F ield         | OpenFOAM: The Open Source CFD Toolbox           |
|  \\    /   O peration     | Version:  2506                                  |
|   \\  /    A nd           | Website:  www.openfoam.com                      |
|    \\/     M anipulation  |                                                 |
\*---------------------------------------------------------------------------*/
FoamFile
{
    version     2.0;
    format      ascii;
    arch        "LSB;label=32;scalar=64";
    class       volScalarField;
    location    "31.8";
    object      T;
}
// * * * * * * * * * * * * * * * * * * * * * * * * * * * * * * * * * * * * * //

dimensions      [0 0 0 1 0 0 0];

internalField   nonuniform List<scalar> 
200
(
273.15
273.149
273.148
273.147
273.146
273.146
273.146
273.145
273.145
273.145
273.145
273.145
273.146
273.147
273.149
273.157
273.179
273.241
273.405
273.791
273.15
273.149
273.148
273.147
273.146
273.146
273.146
273.146
273.145
273.145
273.145
273.145
273.145
273.145
273.146
273.152
273.171
273.232
273.406
273.809
273.15
273.149
273.148
273.147
273.147
273.148
273.148
273.148
273.148
273.148
273.147
273.147
273.146
273.145
273.145
273.151
273.171
273.24
273.428
273.834
273.15
273.149
273.149
273.15
273.151
273.154
273.156
273.157
273.158
273.157
273.156
273.154
273.151
273.149
273.148
273.153
273.178
273.255
273.456
273.859
273.15
273.15
273.152
273.156
273.162
273.169
273.174
273.177
273.179
273.178
273.175
273.171
273.164
273.158
273.156
273.162
273.192
273.281
273.493
273.886
273.15
273.152
273.158
273.169
273.184
273.197
273.208
273.214
273.216
273.214
273.208
273.199
273.188
273.178
273.175
273.185
273.224
273.328
273.548
273.914
273.151
273.156
273.17
273.193
273.22
273.244
273.26
273.268
273.27
273.267
273.26
273.251
273.24
273.233
273.236
273.254
273.303
273.409
273.613
273.94
273.152
273.164
273.191
273.231
273.273
273.307
273.33
273.344
273.352
273.356
273.357
273.356
273.354
273.353
273.36
273.382
273.43
273.525
273.697
273.97
273.154
273.173
273.214
273.271
273.329
273.379
273.417
273.446
273.468
273.486
273.5
273.512
273.522
273.532
273.542
273.562
273.602
273.675
273.802
274.009
273.154
273.173
273.216
273.278
273.344
273.406
273.459
273.505
273.543
273.577
273.606
273.633
273.658
273.682
273.707
273.734
273.771
273.826
273.914
274.051
)
;

boundaryField
{
    leftWall
    {
        type            fixedValue;
        value           uniform 273.15;
    }
    rightWall
    {
        type            customNeumannDirichletCoupledBoundary;
        refValue        nonuniform List<scalar> 10(274.125 274.126 274.127 274.129 274.131 274.133 274.135 274.137 274.139 274.14);
        refGradient     uniform 0;
        valueFraction   uniform 1;
        source          uniform 0;
        value           nonuniform List<scalar> 10(274.125 274.126 274.127 274.129 274.131 274.133 274.135 274.137 274.139 274.14);
        kappaMethod     fluidThermo;
    }
    topWall
    {
        type            zeroGradient;
    }
    bottomWall
    {
        type            zeroGradient;
    }
    frontAndBackPlanes
    {
        type            empty;
    }
}


// ************************************************************************* //
