/*--------------------------------*- C++ -*----------------------------------*\
| =========                 |                                                 |
| \\      /  F ield         | OpenFOAM: The Open Source CFD Toolbox           |
|  \\    /   O peration     | Version:  2506                                  |
|   \\  /    A nd           | Website:  www.openfoam.com                      |
|    \\/     M anipulation  |                                                 |
\*---------------------------------------------------------------------------*/
FoamFile
{
    version     2.0;
    format      ascii;
    arch        "LSB;label=32;scalar=64";
    class       surfaceScalarField;
    location    "134.2";
    object      phi;
}
// * * * * * * * * * * * * * * * * * * * * * * * * * * * * * * * * * * * * * //

dimensions      [1 0 -1 0 0 0 0];

oriented        oriented;

internalField   nonuniform List<scalar> 
370
(
0.000365165
-0.000394207
0.000939706
-0.000574489
0.00143097
-0.000491191
0.00176162
-0.000330559
0.00194402
-0.000182292
0.00202366
-7.95346e-05
0.00204972
-2.59343e-05
0.00206204
-1.21969e-05
0.00208878
-2.65947e-05
0.00214872
-5.98035e-05
0.00225303
-0.000104159
0.00240751
-0.000154316
0.00261209
-0.00020442
0.00285508
-0.000242828
0.00309965
-0.000244394
0.00325836
-0.000158527
0.00316585
9.26901e-05
0.0026122
0.000553826
0.00140847
0.00120389
0.00140855
0.000477685
-0.000871865
0.00127122
-0.00136795
0.0020194
-0.00123926
0.00258759
-0.000898638
0.00296413
-0.0005587
0.00318987
-0.000305136
0.00331902
-0.000154951
0.00340064
-9.36731e-05
0.00347105
-9.68575e-05
0.0035522
-0.000140806
0.00365416
-0.000205965
0.00377552
-0.00027552
0.00390097
-0.000329712
0.00399476
-0.000336444
0.00399
-0.000239472
0.00378191
4.97401e-05
0.00323631
0.000638475
0.00222995
0.00156036
0.000896251
0.00253774
0.00230488
0.000446862
-0.00131869
0.00116871
-0.0020897
0.00184707
-0.00191749
0.00236774
-0.00141915
0.00272372
-0.000914522
0.0029505
-0.000531756
0.00309163
-0.000295908
0.00318365
-0.000185528
0.0032516
-0.000164649
0.00330923
-0.000198264
0.00336028
-0.000256852
0.00339863
-0.000313701
0.00340577
-0.00033668
0.00334597
-0.000276471
0.00316252
-5.58411e-05
0.00278556
0.000426877
0.00216502
0.00125919
0.00131619
0.00240937
0.00044152
0.00341256
0.00274646
0.000372249
-0.0016909
0.000933081
-0.00265043
0.00142318
-0.00240744
0.00177245
-0.00176825
0.00199614
-0.00113803
0.00213316
-0.000668587
0.00221831
-0.000380875
0.00227422
-0.000241259
0.00231249
-0.000202741
0.00233729
-0.000222878
0.00234785
-0.000267236
0.00233834
-0.000304016
0.00229501
-0.000293166
0.00219244
-0.000173718
0.00199362
0.000143164
0.00166445
0.000756236
0.00119226
0.00173158
0.000632682
0.00296913
0.000155908
0.00388948
0.00290244
0.000278022
-0.00196888
0.000631773
-0.00300406
0.00088215
-0.00265765
0.00101647
-0.00190238
0.00107568
-0.00119705
0.00110022
-0.000692933
0.00111332
-0.00039378
0.00112262
-0.000250376
0.00112775
-0.000207683
0.00112623
-0.000221176
0.0011157
-0.000256527
0.00109243
-0.000280559
0.00104771
-0.000248268
0.000965147
-9.09679e-05
0.000823149
0.000285351
0.000608125
0.000971452
0.000335422
0.00200447
7.63941e-05
0.00322833
-5.08763e-05
0.00401689
0.00285162
0.000161741
-0.00213057
0.000261364
-0.00310356
0.000235374
-0.00263149
0.000139286
-0.0018061
3.31367e-05
-0.00109071
-5.31213e-05
-0.000606487
-0.000114244
-0.000332474
-0.000157001
-0.000207436
-0.000189723
-0.000174782
-0.000217895
-0.000192825
-0.000244653
-0.00022959
-0.000273518
-0.000251514
-0.000310626
-0.00021098
-0.000363958
-3.74502e-05
-0.000434169
0.000355753
-0.000507768
0.00104524
-0.000542263
0.00203915
-0.000468535
0.00315478
-0.000243904
0.00379239
0.00260776
-1.41324e-05
-0.00211639
-0.000233593
-0.00288396
-0.000574283
-0.00229063
-0.000912761
-0.00146744
-0.00118569
-0.000817598
-0.00138351
-0.00040849
-0.00152213
-0.000193685
-0.00162086
-0.000108531
-0.00169418
-0.000101281
-0.00175142
-0.000135415
-0.00179833
-0.000182513
-0.00183857
-0.000211099
-0.00187213
-0.000177242
-0.00189037
-1.90363e-05
-0.00186419
0.000329755
-0.00175005
0.000931287
-0.00148851
0.00177778
-0.00103444
0.00270087
-0.000438107
0.00319618
0.00216971
-0.000283999
-0.00183233
-0.0009299
-0.00223792
-0.00162352
-0.00159684
-0.00219414
-0.000896646
-0.00260372
-0.000407838
-0.00287827
-0.00013377
-0.00305852
-1.32665e-05
-0.00317939
1.25009e-05
-0.00326697
-1.35308e-05
-0.00333768
-6.45491e-05
-0.00339987
-0.000120159
-0.00345273
-0.000158081
-0.00348244
-0.000147381
-0.00345502
-4.6293e-05
-0.00331726
0.000192152
-0.00299768
0.000611861
-0.00242933
0.00120958
-0.00159629
0.00186797
-0.000634441
0.00223443
0.00153531
-0.000709573
-0.0011227
-0.00184877
-0.00109858
-0.00281144
-0.000633999
-0.00345017
-0.000257749
-0.00381343
-4.44155e-05
-0.00400329
5.62616e-05
-0.00409722
8.08102e-05
-0.00414907
6.45008e-05
-0.00419231
2.98605e-05
-0.00424522
-1.15036e-05
-0.00431337
-5.18715e-05
-0.00438775
-8.35631e-05
-0.00444124
-9.37634e-05
-0.00442247
-6.49412e-05
-0.00425715
2.69599e-05
-0.0038459
0.000200729
-0.00310564
0.000469438
-0.0020255
0.000787939
-0.00079135
0.00100036
0.000743989
-0.00112263
-0.00222106
-0.0028549
-0.00311248
-0.00315674
-0.00310032
-0.00301936
-0.00295472
-0.00292473
-0.00293611
-0.00298786
-0.00307132
-0.00316497
-0.00322982
-0.00320277
-0.00300195
-0.00253243
-0.00174442
-0.000744011
)
;

boundaryField
{
    leftWall
    {
        type            calculated;
        value           nonuniform List<scalar> 10(0 2.71051e-20 0 0 0 0 -4.33681e-19 0 0 0);
    }
    rightWall
    {
        type            calculated;
        value           nonuniform List<scalar> 10(0 0 0 0 0 0 0 -4.33681e-19 0 0);
    }
    topWall
    {
        type            calculated;
        value           uniform 0;
    }
    bottomWall
    {
        type            calculated;
        value           uniform 0;
    }
    frontAndBackPlanes
    {
        type            empty;
    }
}


// ************************************************************************* //
