/*--------------------------------*- C++ -*----------------------------------*\
| =========                 |                                                 |
| \\      /  F ield         | OpenFOAM: The Open Source CFD Toolbox           |
|  \\    /   O peration     | Version:  2506                                  |
|   \\  /    A nd           | Website:  www.openfoam.com                      |
|    \\/     M anipulation  |                                                 |
\*---------------------------------------------------------------------------*/
FoamFile
{
    version     2.0;
    format      ascii;
    arch        "LSB;label=32;scalar=64";
    class       volVectorField;
    location    "95";
    object      U;
}
// * * * * * * * * * * * * * * * * * * * * * * * * * * * * * * * * * * * * * //

dimensions      [0 1 -1 0 0 0 0];

internalField   nonuniform List<vector> 
200
(
(0.000304733 -0.000915908 0)
(0.00180758 -0.00120196 0)
(0.0035165 -0.000917919 0)
(0.00494786 -0.000537905 0)
(0.00589566 -0.000238615 0)
(0.00645803 -6.50464e-05 0)
(0.00678915 -8.18052e-06 0)
(0.007033 -3.99456e-05 0)
(0.00730248 -0.000132797 0)
(0.00767875 -0.000268469 0)
(0.00821837 -0.000439494 0)
(0.00896061 -0.000645445 0)
(0.00992828 -0.000883565 0)
(0.0111136 -0.00113152 0)
(0.0124343 -0.00131716 0)
(0.0136333 -0.00126485 0)
(0.0141266 -0.000610009 0)
(0.0130014 0.00120387 0)
(0.00932544 0.00427317 0)
(0.00281546 0.0059704 0)
(0.000427426 -0.00378744 0)
(0.00281597 -0.00606574 0)
(0.00551368 -0.00563559 0)
(0.00791139 -0.00424081 0)
(0.00970914 -0.00281135 0)
(0.0109431 -0.00175441 0)
(0.011777 -0.00117017 0)
(0.0123873 -0.00100981 0)
(0.0129184 -0.00117389 0)
(0.0134709 -0.00156403 0)
(0.0141027 -0.00210013 0)
(0.0148318 -0.00271026 0)
(0.0156294 -0.00329457 0)
(0.0163969 -0.00366079 0)
(0.0169252 -0.00343037 0)
(0.0168395 -0.00193242 0)
(0.0155384 0.0018124 0)
(0.0123427 0.00853823 0)
(0.00719906 0.0167432 0)
(0.00123193 0.0171321 0)
(0.000445125 -0.00697777 0)
(0.00289392 -0.0115288 0)
(0.00557505 -0.0110697 0)
(0.00795088 -0.00868544 0)
(0.0097474 -0.00609885 0)
(0.0110016 -0.00407514 0)
(0.0118609 -0.00282296 0)
(0.0124748 -0.00227695 0)
(0.0129568 -0.00226917 0)
(0.0133788 -0.00261833 0)
(0.0137742 -0.00315974 0)
(0.0141398 -0.00372911 0)
(0.014429 -0.00410582 0)
(0.014533 -0.00392099 0)
(0.0142529 -0.00255132 0)
(0.0132627 0.000930649 0)
(0.0112319 0.00746469 0)
(0.00799813 0.0171418 0)
(0.00398852 0.0266427 0)
(0.000468552 0.0231268 0)
(0.000418177 -0.0100777 0)
(0.00260522 -0.016598 0)
(0.00483847 -0.015906 0)
(0.00670051 -0.0124985 0)
(0.00802187 -0.00883069 0)
(0.00888948 -0.0059509 0)
(0.009452 -0.00411594 0)
(0.0098301 -0.00320956 0)
(0.0100982 -0.00298703 0)
(0.0102936 -0.00319577 0)
(0.0104287 -0.00361007 0)
(0.0104961 -0.00400196 0)
(0.0104613 -0.00406229 0)
(0.0102445 -0.00329147 0)
(0.00970166 -0.000911781 0)
(0.00861472 0.00407081 0)
(0.00684971 0.0124034 0)
(0.00442014 0.0235567 0)
(0.00180757 0.0328483 0)
(8.97227e-05 0.0259111 0)
(0.000370369 -0.0127792 0)
(0.00208691 -0.0206412 0)
(0.00359053 -0.019412 0)
(0.00465736 -0.0149817 0)
(0.00527455 -0.0104189 0)
(0.00559079 -0.00692841 0)
(0.00574744 -0.00472419 0)
(0.00582547 -0.0035963 0)
(0.00585587 -0.00322225 0)
(0.00584538 -0.00330393 0)
(0.00579387 -0.00359083 0)
(0.0056971 -0.00382676 0)
(0.00553589 -0.00364554 0)
(0.00525754 -0.00245133 0)
(0.0047534 0.000634303 0)
(0.00392461 0.00657388 0)
(0.00273331 0.0159108 0)
(0.00132049 0.0275435 0)
(0.000102042 0.0359536 0)
(-0.000168956 0.0266217 0)
(0.000292129 -0.0148601 0)
(0.00129407 -0.0232 0)
(0.00178526 -0.0211225 0)
(0.00183166 -0.0157852 0)
(0.00161356 -0.0106469 0)
(0.00131705 -0.00688976 0)
(0.0010401 -0.00459152 0)
(0.000803726 -0.00342873 0)
(0.000595037 -0.00302418 0)
(0.000398991 -0.00306956 0)
(0.000207725 -0.00331686 0)
(1.35474e-05 -0.00349547 0)
(-0.000203333 -0.00319251 0)
(-0.000479462 -0.00174608 0)
(-0.000864213 0.00175253 0)
(-0.00133447 0.0081635 0)
(-0.00177225 0.0177429 0)
(-0.00192767 0.0289339 0)
(-0.0015255 0.0360344 0)
(-0.000366449 0.0255774 0)
(0.000160853 -0.0159232 0)
(4.48717e-05 -0.0236181 0)
(-0.000856247 -0.0204581 0)
(-0.00205098 -0.0145382 0)
(-0.00319627 -0.00933115 0)
(-0.00413892 -0.00575556 0)
(-0.00486728 -0.00367771 0)
(-0.00543075 -0.00268477 0)
(-0.00588333 -0.00239238 0)
(-0.00626285 -0.00251236 0)
(-0.00659342 -0.00280652 0)
(-0.00689502 -0.00299222 0)
(-0.00718493 -0.00264135 0)
(-0.00745818 -0.00111755 0)
(-0.00764615 0.00236901 0)
(-0.00756331 0.00848467 0)
(-0.00694342 0.0172714 0)
(-0.00552179 0.0271075 0)
(-0.00330566 0.0327997 0)
(-0.000610015 0.0226873 0)
(-0.000149553 -0.0152355 0)
(-0.00200564 -0.0208509 0)
(-0.0046464 -0.0167352 0)
(-0.0071964 -0.0109593 0)
(-0.00922593 -0.00639676 0)
(-0.0107019 -0.00351851 0)
(-0.0117488 -0.0019966 0)
(-0.012509 -0.00139253 0)
(-0.0130939 -0.00135715 0)
(-0.0135818 -0.00164221 0)
(-0.0140224 -0.00204042 0)
(-0.0144373 -0.00230011 0)
(-0.0148072 -0.00205746 0)
(-0.0150414 -0.000810165 0)
(-0.0149258 0.00202606 0)
(-0.0141385 0.00693619 0)
(-0.0123114 0.0139007 0)
(-0.0092144 0.0215892 0)
(-0.00514169 0.0259199 0)
(-0.000874707 0.0178377 0)
(-0.000763494 -0.0116755 0)
(-0.00495165 -0.0139801 0)
(-0.00928181 -0.00975232 0)
(-0.0127017 -0.0053029 0)
(-0.0149374 -0.00230017 0)
(-0.0162633 -0.00070003 0)
(-0.0170391 -6.69211e-05 0)
(-0.0175395 -8.13209e-06 0)
(-0.0179308 -0.000266592 0)
(-0.0183185 -0.000684214 0)
(-0.0187607 -0.00113693 0)
(-0.019259 -0.00147961 0)
(-0.0197471 -0.00150295 0)
(-0.0200603 -0.000915865 0)
(-0.0198955 0.000637773 0)
(-0.0187973 0.00350741 0)
(-0.0162857 0.00775214 0)
(-0.0120916 0.0126204 0)
(-0.00665751 0.0156408 0)
(-0.00113292 0.0111127 0)
(-0.00185958 -0.00397695 0)
(-0.00669147 -0.00363615 0)
(-0.0103158 -0.00182516 0)
(-0.0123732 -0.000486292 0)
(-0.0132024 0.000185727 0)
(-0.0133772 0.000416271 0)
(-0.0132913 0.000409541 0)
(-0.0131601 0.00029993 0)
(-0.0131089 0.000149499 0)
(-0.0131982 -1.97236e-05 0)
(-0.0134508 -0.000194134 0)
(-0.0138631 -0.000359162 0)
(-0.0143821 -0.000485636 0)
(-0.0148797 -0.000518519 0)
(-0.0151177 -0.000364315 0)
(-0.0147404 0.00012423 0)
(-0.013268 0.00107619 0)
(-0.0103024 0.0024424 0)
(-0.00605289 0.00365856 0)
(-0.00144806 0.0031122 0)
)
;

boundaryField
{
    leftWall
    {
        type            fixedValue;
        value           uniform (0 0 0);
    }
    rightWall
    {
        type            fixedValue;
        value           uniform (0 0 0);
    }
    topWall
    {
        type            fixedValue;
        value           uniform (0 0 0);
    }
    bottomWall
    {
        type            fixedValue;
        value           uniform (0 0 0);
    }
    frontAndBackPlanes
    {
        type            empty;
    }
}


// ************************************************************************* //
