/*--------------------------------*- C++ -*----------------------------------*\
| =========                 |                                                 |
| \\      /  F ield         | OpenFOAM: The Open Source CFD Toolbox           |
|  \\    /   O peration     | Version:  2506                                  |
|   \\  /    A nd           | Website:  www.openfoam.com                      |
|    \\/     M anipulation  |                                                 |
\*---------------------------------------------------------------------------*/
FoamFile
{
    version     2.0;
    format      ascii;
    arch        "LSB;label=32;scalar=64";
    class       volScalarField;
    location    "76.4";
    object      p_rgh;
}
// * * * * * * * * * * * * * * * * * * * * * * * * * * * * * * * * * * * * * //

dimensions      [1 -1 -2 0 0 0 0];

internalField   nonuniform List<scalar> 
200
(
100000
100000
100000
100000
100000
99999.9
99999.9
99999.9
99999.8
99999.8
99999.8
99999.7
99999.7
99999.6
99999.6
99999.4
99999.3
99999
99998.7
99998.1
100000
100000
100000
99999.9
99999.9
99999.8
99999.8
99999.8
99999.8
99999.7
99999.7
99999.7
99999.6
99999.6
99999.6
99999.5
99999.4
99999.1
99998.4
99996.9
100000
100000
99999.8
99999.7
99999.6
99999.6
99999.5
99999.5
99999.5
99999.5
99999.5
99999.5
99999.5
99999.4
99999.4
99999.4
99999.3
99998.8
99997.7
99995.3
100000
99999.9
99999.5
99999.3
99999.1
99999.1
99999.1
99999.1
99999.1
99999.1
99999.1
99999.1
99999.1
99999.2
99999.2
99999.2
99999
99998.4
99996.7
99993.5
100001
99999.8
99999.1
99998.7
99998.5
99998.4
99998.4
99998.5
99998.5
99998.5
99998.5
99998.6
99998.7
99998.8
99998.9
99998.9
99998.6
99997.7
99995.5
99991.6
100001
99999.6
99998.5
99998
99997.7
99997.6
99997.6
99997.7
99997.7
99997.8
99997.8
99997.9
99998
99998.2
99998.3
99998.3
99997.9
99996.6
99994
99989.8
100001
99999.3
99997.9
99997.1
99996.8
99996.7
99996.7
99996.7
99996.7
99996.6
99996.7
99996.7
99996.8
99997
99997.1
99997
99996.5
99995.1
99992.4
99988.1
100002
99998.9
99997.1
99996.1
99995.7
99995.5
99995.3
99995.2
99995.1
99995
99994.9
99994.9
99994.9
99994.9
99995
99994.8
99994.3
99993
99990.5
99986.4
100002
99998.5
99996.2
99995
99994.4
99994
99993.6
99993.4
99993.1
99992.9
99992.6
99992.4
99992.3
99992.1
99992
99991.8
99991.3
99990.3
99988.3
99984.9
100003
99998.2
99995.7
99994.3
99993.5
99993
99992.6
99992.2
99991.8
99991.4
99991
99990.6
99990.2
99989.9
99989.5
99989.1
99988.5
99987.6
99986.2
99983.8
)
;

boundaryField
{
    leftWall
    {
        type            fixedFluxPressure;
        gradient        nonuniform List<scalar> 10(0.297519 1.79626 5.39349 11.5365 20.3741 32.1252 47.4341 68.6543 95.0952 119.392);
        value           nonuniform List<scalar> 10(100000 100000 100000 100001 100001 100002 100003 100004 100005 100005);
    }
    rightWall
    {
        type            fixedFluxPressure;
        gradient        nonuniform List<scalar> 10(-16.3862 -44.9793 -66.4762 -82.11 -92.4392 -99.7793 -102.294 -97.3602 -82.3603 -61.0147);
        value           nonuniform List<scalar> 10(99997.6 99995.8 99993.6 99991.4 99989.3 99987.3 99985.5 99984 99982.9 99982.2);
    }
    topWall
    {
        type            fixedFluxPressure;
        gradient        uniform 0;
        value           nonuniform List<scalar> 
20
(
100000
100000
100000
100000
100000
99999.9
99999.9
99999.9
99999.8
99999.8
99999.8
99999.7
99999.7
99999.6
99999.6
99999.4
99999.3
99999
99998.7
99998.1
)
;
    }
    bottomWall
    {
        type            fixedFluxPressure;
        gradient        uniform 0;
        value           nonuniform List<scalar> 
20
(
100003
99998.2
99995.7
99994.3
99993.5
99993
99992.6
99992.2
99991.8
99991.4
99991
99990.6
99990.2
99989.9
99989.5
99989.1
99988.5
99987.6
99986.2
99983.8
)
;
    }
    frontAndBackPlanes
    {
        type            empty;
    }
}


// ************************************************************************* //
