/*--------------------------------*- C++ -*----------------------------------*\
| =========                 |                                                 |
| \\      /  F ield         | OpenFOAM: The Open Source CFD Toolbox           |
|  \\    /   O peration     | Version:  2506                                  |
|   \\  /    A nd           | Website:  www.openfoam.com                      |
|    \\/     M anipulation  |                                                 |
\*---------------------------------------------------------------------------*/
FoamFile
{
    version     2.0;
    format      ascii;
    arch        "LSB;label=32;scalar=64";
    class       surfaceScalarField;
    location    "30";
    object      phi;
}
// * * * * * * * * * * * * * * * * * * * * * * * * * * * * * * * * * * * * * //

dimensions      [1 0 -1 0 0 0 0];

oriented        oriented;

internalField   nonuniform List<scalar> 
370
(
-6.01204e-05
-4.44197e-05
6.85325e-05
-0.000128651
0.000278655
-0.000210118
0.000555199
-0.000276539
0.000871658
-0.000316453
0.00120226
-0.000330601
0.00152759
-0.000325318
0.00183648
-0.000308892
0.00212599
-0.000289504
0.00239981
-0.000273815
0.00266588
-0.000266072
0.00293318
-0.000267303
0.00320652
-0.000273337
0.00347926
-0.000272738
0.00371981
-0.000240557
0.00384394
-0.000124121
0.00369627
0.000147683
0.00304655
0.000649749
0.00166663
0.00137996
0.00166666
9.67317e-05
-0.000141146
0.000393756
-0.00042566
0.000848832
-0.000665168
0.00140639
-0.00083406
0.0020135
-0.000923517
0.00262475
-0.000941801
0.00320681
-0.00090732
0.00373948
-0.000841504
0.00421357
-0.000763537
0.00462685
-0.000687044
0.00497891
-0.000618081
0.00526506
-0.000553406
0.00546972
-0.000477958
0.0055574
-0.000360381
0.00546213
-0.000145265
0.0050834
0.000254639
0.00428343
0.00094769
0.00293891
0.00199432
0.00119627
0.00312268
0.00286298
0.000177247
-0.00031838
0.000615271
-0.000863643
0.00122589
-0.00127572
0.00192309
-0.00153116
0.00263497
-0.00163526
0.00330902
-0.00161569
0.00391306
-0.00151119
0.00443206
-0.00136034
0.00486244
-0.00119374
0.00520543
-0.00102987
0.00546047
-0.00087297
0.0056186
-0.000711396
0.00565611
-0.000515356
0.00552941
-0.000233576
0.00517269
0.00021154
0.00451326
0.000914138
0.00349863
0.0019624
0.00216203
0.00333103
0.000771766
0.00451307
0.00363483
0.000225987
-0.000544342
0.00074693
-0.00138451
0.00142379
-0.00195243
0.00214241
-0.00224955
0.00281946
-0.00231201
0.00340496
-0.00220083
0.00387871
-0.00198457
0.00424183
-0.00172308
0.00450665
-0.0014582
0.00468756
-0.00121045
0.00479321
-0.000978322
0.00481987
-0.000737799
0.004746
-0.000441251
0.00453313
-2.0517e-05
0.00412376
0.000621076
0.00347401
0.00156402
0.00256856
0.00286797
0.00148337
0.00441637
0.000472531
0.00552408
0.00410747
0.000249272
-0.000793572
0.000776081
-0.00191117
0.00140554
-0.00258161
0.00201061
-0.00285417
0.00251169
-0.0028125
0.00287503
-0.00256351
0.00310399
-0.00221285
0.00322416
-0.0018426
0.0032689
-0.00150236
0.00326809
-0.00120912
0.00324011
-0.000949881
0.00318626
-0.000683557
0.00308795
-0.000342596
0.00290483
0.000162886
0.00259644
0.000929701
0.00212485
0.00203581
0.00149255
0.00350046
0.000781083
0.00512806
0.000197194
0.00610819
0.00430478
0.000222266
-0.00101577
0.000631851
-0.00232051
0.00105263
-0.00300188
0.00137569
-0.00317643
0.00154767
-0.00298346
0.0015678
-0.00258254
0.00147211
-0.00211611
0.00131188
-0.00168146
0.00113631
-0.00132601
0.000981345
-0.0010535
0.000864339
-0.000832318
0.000782705
-0.000601438
0.000715606
-0.000275073
0.000630389
0.000248455
0.000497521
0.00106287
0.0003039
0.00222971
7.59175e-05
0.00372872
-0.000105689
0.00530998
-0.000130625
0.00613338
0.00417426
0.000105185
-0.00112084
0.000215103
-0.00243001
0.00021766
-0.00300357
6.81e-05
-0.00302556
-0.000225271
-0.00268852
-0.000618375
-0.00218788
-0.00104922
-0.00168392
-0.00145977
-0.00126983
-0.00180898
-0.00097596
-0.00207616
-0.000785619
-0.002258
-0.000649861
-0.00236212
-0.000496734
-0.00239967
-0.000236954
-0.00237369
0.000222975
-0.00227575
0.000965401
-0.00208252
0.00203692
-0.00174711
0.00339373
-0.00121619
0.00477944
-0.000525467
0.00544293
0.00364889
-0.000141358
-0.000979299
-0.000544727
-0.00202597
-0.0011548
-0.00239217
-0.00189686
-0.0022816
-0.00268601
-0.00189727
-0.00344412
-0.00142786
-0.00411849
-0.00100801
-0.00468337
-0.000703747
-0.00513452
-0.000523856
-0.00547936
-0.000439947
-0.00572584
-0.000402594
-0.00587174
-0.000350064
-0.00589602
-0.000211925
-0.00575911
8.67653e-05
-0.00539856
0.00060549
-0.00475165
0.00139057
-0.0037619
0.00240449
-0.00243192
0.00344987
-0.000959271
0.00397056
0.00268973
-0.000460384
-0.000518649
-0.00145541
-0.00102998
-0.00268025
-0.00116552
-0.00391377
-0.00104564
-0.00501079
-0.000797682
-0.0059041
-0.000532228
-0.00659139
-0.000318836
-0.00710923
-0.000184416
-0.0075069
-0.000124983
-0.00782572
-0.000120114
-0.00808441
-0.000142995
-0.0082704
-0.000163228
-0.00833362
-0.000147884
-0.00818957
-5.64783e-05
-0.00772949
0.000146131
-0.00682887
0.000490575
-0.00539992
0.000976062
-0.00346489
0.00151525
-0.00133895
0.00184491
0.0013509
-0.000518368
-0.00154732
-0.00271086
-0.00375379
-0.00454852
-0.00507797
-0.0053944
-0.00557684
-0.00570023
-0.00581906
-0.00596101
-0.00612335
-0.00627047
-0.00632625
-0.00617948
-0.00568835
-0.00471182
-0.00319619
-0.00135101
)
;

boundaryField
{
    leftWall
    {
        type            calculated;
        value           nonuniform List<scalar> 10(0 -4.23516e-22 8.47033e-22 1.69407e-21 0 0 0 0 0 0);
    }
    rightWall
    {
        type            calculated;
        value           nonuniform List<scalar> 10(0 0 4.33681e-19 0 0 0 0 0 0 0);
    }
    topWall
    {
        type            calculated;
        value           uniform 0;
    }
    bottomWall
    {
        type            calculated;
        value           uniform 0;
    }
    frontAndBackPlanes
    {
        type            empty;
    }
}


// ************************************************************************* //
