/*--------------------------------*- C++ -*----------------------------------*\
| =========                 |                                                 |
| \\      /  F ield         | OpenFOAM: The Open Source CFD Toolbox           |
|  \\    /   O peration     | Version:  2506                                  |
|   \\  /    A nd           | Website:  www.openfoam.com                      |
|    \\/     M anipulation  |                                                 |
\*---------------------------------------------------------------------------*/
FoamFile
{
    version     2.0;
    format      ascii;
    arch        "LSB;label=32;scalar=64";
    class       volScalarField;
    location    "74.4";
    object      p;
}
// * * * * * * * * * * * * * * * * * * * * * * * * * * * * * * * * * * * * * //

dimensions      [1 -1 -2 0 0 0 0];

internalField   nonuniform List<scalar> 
200
(
100000
100000
100000
100000
100000
99999.9
99999.9
99999.9
99999.8
99999.8
99999.8
99999.7
99999.7
99999.6
99999.6
99999.5
99999.3
99999.2
99999
99998.9
99733.4
99733.4
99733.4
99733.4
99733.4
99733.4
99733.3
99733.3
99733.3
99733.3
99733.2
99733.2
99733.2
99733.2
99733.1
99733.1
99733
99733
99733
99733
99466.9
99467
99466.9
99466.9
99466.9
99466.9
99466.9
99466.9
99466.8
99466.8
99466.8
99466.8
99466.8
99466.8
99466.7
99466.7
99466.7
99466.7
99466.7
99466.8
99200.6
99200.6
99200.6
99200.6
99200.6
99200.6
99200.6
99200.5
99200.5
99200.5
99200.5
99200.5
99200.5
99200.5
99200.5
99200.5
99200.5
99200.5
99200.5
99200.5
98934.4
98934.4
98934.4
98934.4
98934.4
98934.4
98934.4
98934.4
98934.4
98934.3
98934.3
98934.3
98934.3
98934.3
98934.3
98934.3
98934.3
98934.3
98934.3
98934.3
98668.4
98668.4
98668.4
98668.4
98668.4
98668.3
98668.3
98668.3
98668.3
98668.3
98668.3
98668.3
98668.3
98668.3
98668.3
98668.3
98668.3
98668.3
98668.3
98668.3
98402.5
98402.5
98402.5
98402.5
98402.5
98402.5
98402.5
98402.5
98402.4
98402.4
98402.4
98402.4
98402.4
98402.4
98402.4
98402.4
98402.4
98402.5
98402.5
98402.5
98136.8
98136.8
98136.8
98136.8
98136.8
98136.8
98136.8
98136.8
98136.8
98136.8
98136.8
98136.8
98136.8
98136.8
98136.8
98136.9
98136.9
98137
98137
98137
97871.1
97871.1
97871.1
97871.1
97871.2
97871.2
97871.3
97871.3
97871.3
97871.4
97871.4
97871.5
97871.5
97871.5
97871.6
97871.7
97871.8
97871.8
97871.9
97871.9
97605.3
97605.4
97605.5
97605.6
97605.7
97605.8
97605.9
97606
97606.1
97606.2
97606.3
97606.4
97606.5
97606.6
97606.7
97606.8
97607
97607.1
97607.2
97607.2
)
;

boundaryField
{
    leftWall
    {
        type            zeroGradient;
    }
    rightWall
    {
        type            zeroGradient;
    }
    topWall
    {
        type            zeroGradient;
    }
    bottomWall
    {
        type            zeroGradient;
    }
    frontAndBackPlanes
    {
        type            empty;
    }
}


// ************************************************************************* //
