/*--------------------------------*- C++ -*----------------------------------*\
| =========                 |                                                 |
| \\      /  F ield         | OpenFOAM: The Open Source CFD Toolbox           |
|  \\    /   O peration     | Version:  2506                                  |
|   \\  /    A nd           | Website:  www.openfoam.com                      |
|    \\/     M anipulation  |                                                 |
\*---------------------------------------------------------------------------*/
FoamFile
{
    version     2.0;
    format      ascii;
    arch        "LSB;label=32;scalar=64";
    class       volScalarField;
    location    "126.8";
    object      T;
}
// * * * * * * * * * * * * * * * * * * * * * * * * * * * * * * * * * * * * * //

dimensions      [0 0 0 1 0 0 0];

internalField   nonuniform List<scalar> 
200
(
273.167
273.196
273.218
273.233
273.243
273.25
273.255
273.26
273.264
273.268
273.272
273.276
273.28
273.285
273.291
273.301
273.325
273.387
273.538
273.865
273.177
273.225
273.259
273.279
273.29
273.295
273.298
273.3
273.302
273.305
273.308
273.311
273.314
273.317
273.32
273.326
273.347
273.406
273.562
273.891
273.191
273.265
273.316
273.345
273.359
273.365
273.366
273.365
273.365
273.365
273.365
273.366
273.367
273.366
273.365
273.369
273.386
273.447
273.606
273.922
273.206
273.306
273.374
273.413
273.431
273.436
273.436
273.433
273.43
273.428
273.426
273.424
273.421
273.416
273.411
273.411
273.428
273.493
273.655
273.952
273.221
273.346
273.432
273.478
273.498
273.502
273.499
273.494
273.489
273.486
273.482
273.478
273.472
273.464
273.456
273.454
273.474
273.544
273.707
273.979
273.235
273.387
273.488
273.539
273.558
273.56
273.555
273.55
273.545
273.542
273.539
273.534
273.527
273.517
273.509
273.511
273.537
273.61
273.762
274
273.252
273.432
273.543
273.594
273.611
273.613
273.611
273.609
273.608
273.608
273.607
273.603
273.598
273.591
273.587
273.593
273.621
273.689
273.819
274.022
273.274
273.476
273.593
273.645
273.665
273.672
273.677
273.681
273.685
273.689
273.692
273.694
273.694
273.692
273.693
273.701
273.726
273.781
273.885
274.046
273.297
273.517
273.638
273.694
273.721
273.736
273.747
273.757
273.767
273.776
273.784
273.792
273.799
273.806
273.812
273.823
273.844
273.885
273.958
274.074
273.314
273.539
273.659
273.718
273.749
273.768
273.783
273.797
273.811
273.825
273.839
273.853
273.868
273.883
273.899
273.917
273.94
273.973
274.024
274.099
)
;

boundaryField
{
    leftWall
    {
        type            fixedValue;
        value           uniform 273.15;
    }
    rightWall
    {
        type            customNeumannDirichletCoupledBoundary;
        refValue        nonuniform List<scalar> 10(274.13 274.132 274.133 274.135 274.137 274.139 274.14 274.142 274.144 274.145);
        refGradient     uniform 0;
        valueFraction   uniform 1;
        source          uniform 0;
        value           nonuniform List<scalar> 10(274.13 274.132 274.133 274.135 274.137 274.139 274.14 274.142 274.144 274.145);
        kappaMethod     fluidThermo;
    }
    topWall
    {
        type            zeroGradient;
    }
    bottomWall
    {
        type            zeroGradient;
    }
    frontAndBackPlanes
    {
        type            empty;
    }
}


// ************************************************************************* //
