/*--------------------------------*- C++ -*----------------------------------*\
| =========                 |                                                 |
| \\      /  F ield         | OpenFOAM: The Open Source CFD Toolbox           |
|  \\    /   O peration     | Version:  2506                                  |
|   \\  /    A nd           | Website:  www.openfoam.com                      |
|    \\/     M anipulation  |                                                 |
\*---------------------------------------------------------------------------*/
FoamFile
{
    version     2.0;
    format      ascii;
    arch        "LSB;label=32;scalar=64";
    class       volVectorField;
    location    "131";
    object      U;
}
// * * * * * * * * * * * * * * * * * * * * * * * * * * * * * * * * * * * * * //

dimensions      [0 1 -1 0 0 0 0];

internalField   nonuniform List<vector> 
200
(
(0.000541658 -0.00132445 0)
(0.00266694 -0.00167868 0)
(0.00489455 -0.0012281 0)
(0.00664748 -0.000652792 0)
(0.00770863 -0.000211899 0)
(0.00822437 4.0567e-05 0)
(0.00841497 0.000129365 0)
(0.00847487 0.000101299 0)
(0.00854685 -3.81093e-07 0)
(0.0087268 -0.000146216 0)
(0.00907518 -0.000322731 0)
(0.00962778 -0.000527089 0)
(0.0104011 -0.000756483 0)
(0.0113816 -0.000990543 0)
(0.012484 -0.00116067 0)
(0.0134566 -0.00109616 0)
(0.0137504 -0.000448845 0)
(0.0124998 0.00128378 0)
(0.00885533 0.00414993 0)
(0.00264547 0.00562203 0)
(0.000563798 -0.00519458 0)
(0.00358209 -0.00798791 0)
(0.00685278 -0.00708941 0)
(0.00964284 -0.00499202 0)
(0.0116109 -0.00295422 0)
(0.0128323 -0.00147761 0)
(0.0135327 -0.000652402 0)
(0.0139427 -0.000382273 0)
(0.0142445 -0.000514805 0)
(0.0145592 -0.000907506 0)
(0.0149525 -0.0014504 0)
(0.0154429 -0.00205574 0)
(0.0159992 -0.00262033 0)
(0.0165227 -0.00295995 0)
(0.0168111 -0.00271555 0)
(0.0165068 -0.00125093 0)
(0.0150394 0.00233876 0)
(0.0118035 0.00867465 0)
(0.00680145 0.0162279 0)
(0.00114679 0.0161733 0)
(0.000525341 -0.00907855 0)
(0.00333886 -0.0144471 0)
(0.00631981 -0.0133018 0)
(0.00887097 -0.00985949 0)
(0.0107074 -0.00634213 0)
(0.0118999 -0.00366433 0)
(0.0126374 -0.00202481 0)
(0.013101 -0.00128997 0)
(0.0134234 -0.00121493 0)
(0.0136853 -0.00155433 0)
(0.0139225 -0.00209921 0)
(0.0141307 -0.00266156 0)
(0.0142619 -0.00301654 0)
(0.0142079 -0.00281079 0)
(0.0137768 -0.0014603 0)
(0.0126643 0.00188164 0)
(0.0106009 0.00803815 0)
(0.00745235 0.017036 0)
(0.00365293 0.0256275 0)
(0.000411709 0.0217435 0)
(0.000454875 -0.0125206 0)
(0.00274937 -0.0199046 0)
(0.00499278 -0.0183297 0)
(0.00678366 -0.0136522 0)
(0.00798482 -0.00890917 0)
(0.00872039 -0.00530458 0)
(0.0091637 -0.00306302 0)
(0.00944443 -0.00197477 0)
(0.00963521 -0.00170011 0)
(0.00976725 -0.00191254 0)
(0.0098468 -0.00233809 0)
(0.00986138 -0.00272455 0)
(0.00977336 -0.00276176 0)
(0.00950368 -0.00197691 0)
(0.00890845 0.000343067 0)
(0.00782413 0.00505717 0)
(0.00612876 0.012823 0)
(0.00386704 0.0230674 0)
(0.00150694 0.0313003 0)
(4.60712e-05 0.0241772 0)
(0.000370406 -0.0152663 0)
(0.00198607 -0.0238072 0)
(0.00327321 -0.0215212 0)
(0.00409033 -0.0157518 0)
(0.00448914 -0.0101418 0)
(0.00464958 -0.00600859 0)
(0.0047167 -0.00349069 0)
(0.00475839 -0.00225714 0)
(0.0047873 -0.00188237 0)
(0.00479478 -0.00199754 0)
(0.00477045 -0.00230999 0)
(0.00470355 -0.00254401 0)
(0.00457108 -0.00233822 0)
(0.00432144 -0.00113847 0)
(0.00385658 0.00183933 0)
(0.00310352 0.00741295 0)
(0.0020428 0.0160307 0)
(0.000836138 0.026587 0)
(-0.000113688 0.0338771 0)
(-0.000179825 0.024595 0)
(0.000269417 -0.0171699 0)
(0.00102669 -0.0258478 0)
(0.00116213 -0.0226025 0)
(0.000883612 -0.0159992 0)
(0.000441618 -0.00997644 0)
(2.95291e-05 -0.00574988 0)
(-0.000277289 -0.00328137 0)
(-0.000489479 -0.0021118 0)
(-0.000644573 -0.00176355 0)
(-0.000772048 -0.0018702 0)
(-0.000888605 -0.00215236 0)
(-0.00100662 -0.00232719 0)
(-0.00114628 -0.00199601 0)
(-0.00133925 -0.000555267 0)
(-0.00162021 0.00278691 0)
(-0.00195591 0.00874307 0)
(-0.0022281 0.0174823 0)
(-0.00219507 0.0275061 0)
(-0.00161432 0.033537 0)
(-0.000363698 0.0233767 0)
(0.000135182 -0.0178978 0)
(-0.000298166 -0.025548 0)
(-0.00159444 -0.0211953 0)
(-0.00307956 -0.014219 0)
(-0.00437725 -0.0083872 0)
(-0.00535729 -0.00454879 0)
(-0.00604822 -0.00242975 0)
(-0.00653308 -0.00149925 0)
(-0.00688688 -0.00129726 0)
(-0.00715926 -0.00149266 0)
(-0.00738055 -0.00182655 0)
(-0.00757157 -0.00201517 0)
(-0.00774477 -0.00165658 0)
(-0.00788701 -0.000180961 0)
(-0.00792052 0.0030935 0)
(-0.00767855 0.00871909 0)
(-0.00692108 0.0166698 0)
(-0.00541408 0.0254033 0)
(-0.0031872 0.030165 0)
(-0.000575539 0.0205255 0)
(-0.000207817 -0.0168038 0)
(-0.00240124 -0.022066 0)
(-0.00534811 -0.0168718 0)
(-0.00807014 -0.0103076 0)
(-0.0101291 -0.00536826 0)
(-0.0115357 -0.00239609 0)
(-0.0124586 -0.000932488 0)
(-0.0130691 -0.000442185 0)
(-0.0134956 -0.000519772 0)
(-0.0138263 -0.000887489 0)
(-0.0141131 -0.0013275 0)
(-0.0143753 -0.00159877 0)
(-0.0145886 -0.0013704 0)
(-0.01466 -0.000199275 0)
(-0.0143853 0.00242018 0)
(-0.0134855 0.00689925 0)
(-0.0116296 0.013165 0)
(-0.00862455 0.0199569 0)
(-0.00476445 0.0235671 0)
(-0.000798362 0.015976 0)
(-0.000857826 -0.0127659 0)
(-0.00541556 -0.014556 0)
(-0.00993619 -0.00951091 0)
(-0.0133381 -0.00459271 0)
(-0.0154045 -0.00145112 0)
(-0.016501 0.000100889 0)
(-0.0170442 0.000617254 0)
(-0.0173219 0.000554497 0)
(-0.0175119 0.000198925 0)
(-0.0177169 -0.00028125 0)
(-0.017986 -0.000763216 0)
(-0.0183172 -0.0011131 0)
(-0.0186408 -0.00114538 0)
(-0.0187983 -0.000605647 0)
(-0.0185074 0.000816415 0)
(-0.0173661 0.00342203 0)
(-0.0149458 0.00722599 0)
(-0.0110208 0.0115144 0)
(-0.00601902 0.0140573 0)
(-0.00101187 0.00984647 0)
(-0.00205005 -0.00437258 0)
(-0.00722754 -0.00376365 0)
(-0.0108703 -0.00168944 0)
(-0.0127345 -0.00024941 0)
(-0.0132973 0.000416358 0)
(-0.0132029 0.000593324 0)
(-0.0128756 0.000536248 0)
(-0.0125529 0.00038891 0)
(-0.0123511 0.000214057 0)
(-0.012318 3.33944e-05 0)
(-0.0124654 -0.000143278 0)
(-0.0127746 -0.00030276 0)
(-0.0131872 -0.00041948 0)
(-0.0135792 -0.000445506 0)
(-0.0137326 -0.000299055 0)
(-0.013323 0.000147874 0)
(-0.0119239 0.000997609 0)
(-0.00919806 0.00219484 0)
(-0.00535963 0.00323612 0)
(-0.00126672 0.00271913 0)
)
;

boundaryField
{
    leftWall
    {
        type            fixedValue;
        value           uniform (0 0 0);
    }
    rightWall
    {
        type            fixedValue;
        value           uniform (0 0 0);
    }
    topWall
    {
        type            fixedValue;
        value           uniform (0 0 0);
    }
    bottomWall
    {
        type            fixedValue;
        value           uniform (0 0 0);
    }
    frontAndBackPlanes
    {
        type            empty;
    }
}


// ************************************************************************* //
