/*--------------------------------*- C++ -*----------------------------------*\
| =========                 |                                                 |
| \\      /  F ield         | OpenFOAM: The Open Source CFD Toolbox           |
|  \\    /   O peration     | Version:  2506                                  |
|   \\  /    A nd           | Website:  www.openfoam.com                      |
|    \\/     M anipulation  |                                                 |
\*---------------------------------------------------------------------------*/
FoamFile
{
    version     2.0;
    format      ascii;
    arch        "LSB;label=32;scalar=64";
    class       volVectorField;
    location    "24.2";
    object      U;
}
// * * * * * * * * * * * * * * * * * * * * * * * * * * * * * * * * * * * * * //

dimensions      [0 1 -1 0 0 0 0];

internalField   nonuniform List<vector> 
200
(
(-0.000251829 -8.29142e-05 0)
(-0.00018904 -0.000197087 0)
(0.00039476 -0.000305063 0)
(0.00131776 -0.000450513 0)
(0.00246495 -0.00057453 0)
(0.00380175 -0.000656481 0)
(0.00524931 -0.000698413 0)
(0.00673199 -0.000710381 0)
(0.0081924 -0.000707981 0)
(0.00959619 -0.000709911 0)
(0.0109321 -0.000734686 0)
(0.0122075 -0.00079702 0)
(0.0134365 -0.000902788 0)
(0.0146178 -0.00103804 0)
(0.01569 -0.00114387 0)
(0.0164366 -0.00105764 0)
(0.0163888 -0.000408815 0)
(0.0146955 0.00139456 0)
(0.0104044 0.0045909 0)
(0.0031035 0.00652792 0)
(1.74686e-05 -0.000487684 0)
(0.000598938 -0.00159656 0)
(0.00186479 -0.00272894 0)
(0.00368913 -0.00376254 0)
(0.00593252 -0.00456299 0)
(0.00845007 -0.00507993 0)
(0.0110929 -0.00531553 0)
(0.0137234 -0.00530999 0)
(0.0162269 -0.00512782 0)
(0.0185163 -0.00484097 0)
(0.0205263 -0.00451006 0)
(0.0221998 -0.00416371 0)
(0.0234664 -0.00377245 0)
(0.0242129 -0.00320691 0)
(0.0242441 -0.00216384 0)
(0.0232337 -4.93002e-05 0)
(0.0206499 0.00405643 0)
(0.0159202 0.0109696 0)
(0.00913644 0.0194154 0)
(0.00156645 0.0195447 0)
(9.35598e-05 -0.00129861 0)
(0.00105197 -0.0039639 0)
(0.00277748 -0.00644458 0)
(0.00511184 -0.00850542 0)
(0.00784308 -0.00999908 0)
(0.0107761 -0.0108654 0)
(0.0137301 -0.0111232 0)
(0.016546 -0.0108545 0)
(0.019097 -0.0101783 0)
(0.0212895 -0.00921516 0)
(0.0230533 -0.00804965 0)
(0.0243213 -0.00669231 0)
(0.0250038 -0.00503992 0)
(0.0249612 -0.00282516 0)
(0.0239602 0.00045422 0)
(0.0217102 0.00551925 0)
(0.0179494 0.0131497 0)
(0.0126167 0.0234884 0)
(0.00638304 0.0332238 0)
(0.000839582 0.0280692 0)
(0.000122981 -0.00250615 0)
(0.00127131 -0.00703747 0)
(0.00319959 -0.0108975 0)
(0.00568775 -0.0138945 0)
(0.00847461 -0.015897 0)
(0.0113339 -0.016864 0)
(0.0140683 -0.0168585 0)
(0.0165187 -0.0160346 0)
(0.0185771 -0.0145946 0)
(0.0201848 -0.0127283 0)
(0.0213157 -0.0105514 0)
(0.0219474 -0.00805122 0)
(0.0220314 -0.00504086 0)
(0.0214677 -0.00112351 0)
(0.0200286 0.00430171 0)
(0.0175591 0.0119004 0)
(0.0139235 0.0222091 0)
(0.00923661 0.0345949 0)
(0.00424834 0.0440254 0)
(0.000447569 0.0336167 0)
(0.000142206 -0.00385766 0)
(0.00129244 -0.0102757 0)
(0.00310861 -0.0153861 0)
(0.00534671 -0.0191032 0)
(0.00773617 -0.021343 0)
(0.0100475 -0.0221073 0)
(0.0120901 -0.0215366 0)
(0.0137316 -0.0199012 0)
(0.0149145 -0.0175312 0)
(0.0156504 -0.0147167 0)
(0.0159904 -0.0116149 0)
(0.015987 -0.00817977 0)
(0.0156516 -0.00411942 0)
(0.0148784 0.00110542 0)
(0.0135545 0.00813424 0)
(0.0115538 0.017587 0)
(0.00879915 0.0297048 0)
(0.00545253 0.0431395 0)
(0.00215988 0.0515764 0)
(0.000118513 0.0368385 0)
(0.000131741 -0.00511338 0)
(0.000995426 -0.0130851 0)
(0.00224463 -0.0190817 0)
(0.0036765 -0.023173 0)
(0.00507425 -0.0253276 0)
(0.00624992 -0.0256006 0)
(0.00705921 -0.0242397 0)
(0.00743503 -0.0216807 0)
(0.00740562 -0.0184264 0)
(0.0070753 -0.0148874 0)
(0.00657757 -0.0112515 0)
(0.00602296 -0.00740331 0)
(0.00545737 -0.00290204 0)
(0.00479233 0.00295481 0)
(0.00398004 0.0108805 0)
(0.00293936 0.0214056 0)
(0.00168496 0.0344577 0)
(0.000404904 0.0480716 0)
(-0.000448327 0.0551429 0)
(-0.000258954 0.0375574 0)
(5.92881e-05 -0.00583727 0)
(0.00020053 -0.0144992 0)
(0.000261059 -0.0207323 0)
(0.000165331 -0.0247287 0)
(-0.000172448 -0.0264723 0)
(-0.000829516 -0.02605 0)
(-0.00183165 -0.023849 0)
(-0.0031307 -0.0205128 0)
(-0.00459366 -0.0167318 0)
(-0.0060452 -0.0130024 0)
(-0.00732306 -0.00946927 0)
(-0.00831934 -0.00587771 0)
(-0.00898864 -0.00162242 0)
(-0.00933665 0.00409015 0)
(-0.00930111 0.0119516 0)
(-0.00884603 0.0223582 0)
(-0.00784338 0.0349523 0)
(-0.00612731 0.0474654 0)
(-0.00369677 0.0530103 0)
(-0.000725413 0.0351113 0)
(-0.000109492 -0.00540451 0)
(-0.00115875 -0.0132739 0)
(-0.00292075 -0.0187921 0)
(-0.00525369 -0.0220997 0)
(-0.00798923 -0.0231481 0)
(-0.010989 -0.0220776 0)
(-0.0140984 -0.0194092 0)
(-0.0171374 -0.0159265 0)
(-0.0199244 -0.0123833 0)
(-0.0223089 -0.00923468 0)
(-0.0241886 -0.00651858 0)
(-0.0254973 -0.00387999 0)
(-0.0261631 -0.000684582 0)
(-0.0260166 0.00380813 0)
(-0.0248815 0.0102356 0)
(-0.022548 0.0189141 0)
(-0.0187871 0.029424 0)
(-0.0135487 0.0396965 0)
(-0.00737307 0.0439441 0)
(-0.00126142 0.0288431 0)
(-0.000292173 -0.00344141 0)
(-0.00248117 -0.00869307 0)
(-0.00606344 -0.0124541 0)
(-0.0106181 -0.0146035 0)
(-0.0156463 -0.0150075 0)
(-0.0207033 -0.0138068 0)
(-0.0254128 -0.0115122 0)
(-0.0295118 -0.0088326 0)
(-0.0328787 -0.00638732 0)
(-0.0355123 -0.00449819 0)
(-0.0374676 -0.00313868 0)
(-0.038772 -0.00199708 0)
(-0.0393487 -0.000580087 0)
(-0.038942 0.0016911 0)
(-0.0372059 0.00537258 0)
(-0.0336941 0.0107606 0)
(-0.0279823 0.0176016 0)
(-0.0200112 0.0245258 0)
(-0.0106928 0.0277729 0)
(-0.00179256 0.0186707 0)
(-0.000255556 -0.000714876 0)
(-0.00203231 -0.00185994 0)
(-0.00528669 -0.00271563 0)
(-0.00952615 -0.00318921 0)
(-0.0141544 -0.00319851 0)
(-0.0185933 -0.00277322 0)
(-0.0223915 -0.00208262 0)
(-0.0253263 -0.00135815 0)
(-0.0274171 -0.000790107 0)
(-0.0288452 -0.000469988 0)
(-0.0298367 -0.000388444 0)
(-0.0305578 -0.000460224 0)
(-0.0310403 -0.000547956 0)
(-0.0311317 -0.000467272 0)
(-0.030475 2.45716e-05 0)
(-0.028508 0.00113537 0)
(-0.0245906 0.00294364 0)
(-0.0183538 0.00520448 0)
(-0.0104251 0.00688714 0)
(-0.0024573 0.00540377 0)
)
;

boundaryField
{
    leftWall
    {
        type            fixedValue;
        value           uniform (0 0 0);
    }
    rightWall
    {
        type            fixedValue;
        value           uniform (0 0 0);
    }
    topWall
    {
        type            fixedValue;
        value           uniform (0 0 0);
    }
    bottomWall
    {
        type            fixedValue;
        value           uniform (0 0 0);
    }
    frontAndBackPlanes
    {
        type            empty;
    }
}


// ************************************************************************* //
