/*--------------------------------*- C++ -*----------------------------------*\
| =========                 |                                                 |
| \\      /  F ield         | OpenFOAM: The Open Source CFD Toolbox           |
|  \\    /   O peration     | Version:  2506                                  |
|   \\  /    A nd           | Website:  www.openfoam.com                      |
|    \\/     M anipulation  |                                                 |
\*---------------------------------------------------------------------------*/
FoamFile
{
    version     2.0;
    format      ascii;
    arch        "LSB;label=32;scalar=64";
    class       volVectorField;
    location    "78.2";
    object      U;
}
// * * * * * * * * * * * * * * * * * * * * * * * * * * * * * * * * * * * * * //

dimensions      [0 1 -1 0 0 0 0];

internalField   nonuniform List<vector> 
200
(
(0.000160494 -0.000676024 0)
(0.00128983 -0.000924423 0)
(0.00269694 -0.000744334 0)
(0.00395088 -0.000484712 0)
(0.00485252 -0.000270628 0)
(0.00546724 -0.000141673 0)
(0.00590543 -9.93659e-05 0)
(0.00627785 -0.000128463 0)
(0.00667789 -0.000212039 0)
(0.00717846 -0.000338954 0)
(0.00783557 -0.000505462 0)
(0.00869212 -0.000712128 0)
(0.00977513 -0.000955122 0)
(0.0110788 -0.00120935 0)
(0.0125191 -0.00139914 0)
(0.0138317 -0.00134591 0)
(0.0144123 -0.000679724 0)
(0.0133263 0.0011807 0)
(0.00960468 0.00435483 0)
(0.00291099 0.00616422 0)
(0.000340288 -0.002937 0)
(0.00233061 -0.00491328 0)
(0.00467357 -0.00479207 0)
(0.00683997 -0.00384963 0)
(0.00855454 -0.00280441 0)
(0.00982464 -0.00200282 0)
(0.0107711 -0.00155393 0)
(0.0115332 -0.00144334 0)
(0.0122305 -0.00160917 0)
(0.0129504 -0.00198331 0)
(0.0137462 -0.00250484 0)
(0.0146355 -0.00310973 0)
(0.0155899 -0.00369591 0)
(0.0165093 -0.00406076 0)
(0.0171767 -0.00381034 0)
(0.0172033 -0.00225615 0)
(0.01597 0.00160937 0)
(0.0127558 0.00856894 0)
(0.00748281 0.0171215 0)
(0.00129098 0.017709 0)
(0.000390141 -0.00567146 0)
(0.00258936 -0.00972832 0)
(0.00506808 -0.00973149 0)
(0.00733084 -0.0080453 0)
(0.00911098 -0.00606571 0)
(0.0104216 -0.00445828 0)
(0.0113807 -0.0034398 0)
(0.0121148 -0.0029935 0)
(0.0127232 -0.00300613 0)
(0.0132708 -0.00334128 0)
(0.0137884 -0.0038634 0)
(0.014273 -0.00442054 0)
(0.0146777 -0.00478862 0)
(0.0148912 -0.00458126 0)
(0.0147063 -0.00314617 0)
(0.0137834 0.000480843 0)
(0.0117521 0.0072966 0)
(0.00843195 0.0174036 0)
(0.0042503 0.0274137 0)
(0.000513613 0.0240243 0)
(0.000389496 -0.00852172 0)
(0.00248295 -0.0145068 0)
(0.00468951 -0.0144158 0)
(0.00658649 -0.0118628 0)
(0.00798449 -0.00891447 0)
(0.00894459 -0.00651207 0)
(0.00959716 -0.00493374 0)
(0.0100547 -0.00412822 0)
(0.0103909 -0.00391817 0)
(0.0106456 -0.00410339 0)
(0.0108346 -0.00449037 0)
(0.0109529 -0.00486356 0)
(0.0109672 -0.00490773 0)
(0.0107971 -0.00409854 0)
(0.0102924 -0.00161247 0)
(0.00921351 0.00361399 0)
(0.00739838 0.0123732 0)
(0.00484314 0.0241248 0)
(0.00204106 0.0340317 0)
(0.000124927 0.0270873 0)
(0.000364922 -0.0111594 0)
(0.0021223 -0.0185912 0)
(0.00374683 -0.0180894 0)
(0.00496521 -0.014578 0)
(0.00572174 -0.0107336 0)
(0.00614171 -0.00768007 0)
(0.00636194 -0.00568062 0)
(0.00647055 -0.00460854 0)
(0.00650981 -0.00421576 0)
(0.00649655 -0.00425594 0)
(0.00643753 -0.00450699 0)
(0.00633226 -0.00472114 0)
(0.00616322 -0.0045227 0)
(0.0058779 -0.00328512 0)
(0.00536837 -6.62154e-05 0)
(0.00449883 0.00619938 0)
(0.00322748 0.0160842 0)
(0.00167544 0.0284451 0)
(0.000266838 0.0375267 0)
(-0.000158614 0.0280292 0)
(0.000304045 -0.0133238 0)
(0.00144769 -0.0214479 0)
(0.00215703 -0.0201853 0)
(0.00240997 -0.0157355 0)
(0.00233723 -0.0112177 0)
(0.00211475 -0.00778589 0)
(0.0018542 -0.00559951 0)
(0.0015972 -0.00442979 0)
(0.0013484 -0.00397168 0)
(0.00110448 -0.00396076 0)
(0.000864162 -0.00416956 0)
(0.000622658 -0.00433011 0)
(0.000360563 -0.00401545 0)
(3.87057e-05 -0.00252295 0)
(-0.00040488 0.00114145 0)
(-0.000953885 0.00793898 0)
(-0.00148591 0.0181525 0)
(-0.00175166 0.0301445 0)
(-0.00146139 0.0379016 0)
(-0.000367077 0.0271216 0)
(0.000177575 -0.0145811 0)
(0.000266536 -0.0223095 0)
(-0.000380045 -0.0200005 0)
(-0.00139195 -0.0148402 0)
(-0.00244141 -0.01008 0)
(-0.00336867 -0.0066849 0)
(-0.00413593 -0.00462548 0)
(-0.00476736 -0.00357638 0)
(-0.00530003 -0.00321067 0)
(-0.00576221 -0.00327144 0)
(-0.00617351 -0.00353152 0)
(-0.00655319 -0.0037026 0)
(-0.00692129 -0.00333258 0)
(-0.0072784 -0.00173805 0)
(-0.00756169 0.00194487 0)
(-0.00757053 0.0084584 0)
(-0.00701901 0.0178663 0)
(-0.00562664 0.0284621 0)
(-0.00339526 0.0347359 0)
(-0.000633866 0.0242056 0)
(-0.000111686 -0.0141496 0)
(-0.00174283 -0.0200132 0)
(-0.00417847 -0.0166769 0)
(-0.00661947 -0.0114714 0)
(-0.00864195 -0.00717445 0)
(-0.0101836 -0.00435114 0)
(-0.0113349 -0.0027794 0)
(-0.0122144 -0.0020881 0)
(-0.0129223 -0.00196995 0)
(-0.0135305 -0.00219831 0)
(-0.0140864 -0.00256745 0)
(-0.0146133 -0.00281382 0)
(-0.0150941 -0.00254678 0)
(-0.0154374 -0.00122103 0)
(-0.0154208 0.00180163 0)
(-0.0146909 0.00705021 0)
(-0.0128539 0.0145265 0)
(-0.00966043 0.0228332 0)
(-0.00541446 0.0276218 0)
(-0.000928071 0.0191406 0)
(-0.000698879 -0.0109122 0)
(-0.00463232 -0.013579 0)
(-0.00883346 -0.00994286 0)
(-0.0122727 -0.00583483 0)
(-0.0146353 -0.00293074 0)
(-0.0161401 -0.00129177 0)
(-0.0170978 -0.000566073 0)
(-0.0177598 -0.000414936 0)
(-0.0183001 -0.000603562 0)
(-0.0188264 -0.000978157 0)
(-0.0193967 -0.00141235 0)
(-0.0200183 -0.00174992 0)
(-0.0206255 -0.00176208 0)
(-0.0210464 -0.00113079 0)
(-0.0209619 0.000531414 0)
(-0.019876 0.00360464 0)
(-0.0172747 0.00817016 0)
(-0.0128652 0.0134399 0)
(-0.00710943 0.0167708 0)
(-0.00121712 0.0119942 0)
(-0.00172497 -0.00369859 0)
(-0.00631348 -0.0035461 0)
(-0.00992966 -0.00192644 0)
(-0.0121345 -0.000663356 0)
(-0.0131655 9.20562e-06 0)
(-0.0135297 0.000273523 0)
(-0.0136072 0.000311205 0)
(-0.0136155 0.000233616 0)
(-0.013671 0.000100581 0)
(-0.013844 -5.90443e-05 0)
(-0.0141738 -0.000231924 0)
(-0.0146626 -0.000402052 0)
(-0.01526 -0.000536353 0)
(-0.0158335 -0.000574122 0)
(-0.016128 -0.000413041 0)
(-0.0157654 0.000108598 0)
(-0.0142296 0.00113637 0)
(-0.011083 0.00262226 0)
(-0.00653671 0.00395711 0)
(-0.00157325 0.00338452 0)
)
;

boundaryField
{
    leftWall
    {
        type            fixedValue;
        value           uniform (0 0 0);
    }
    rightWall
    {
        type            fixedValue;
        value           uniform (0 0 0);
    }
    topWall
    {
        type            fixedValue;
        value           uniform (0 0 0);
    }
    bottomWall
    {
        type            fixedValue;
        value           uniform (0 0 0);
    }
    frontAndBackPlanes
    {
        type            empty;
    }
}


// ************************************************************************* //
