/*--------------------------------*- C++ -*----------------------------------*\
| =========                 |                                                 |
| \\      /  F ield         | OpenFOAM: The Open Source CFD Toolbox           |
|  \\    /   O peration     | Version:  2506                                  |
|   \\  /    A nd           | Website:  www.openfoam.com                      |
|    \\/     M anipulation  |                                                 |
\*---------------------------------------------------------------------------*/
FoamFile
{
    version     2.0;
    format      ascii;
    arch        "LSB;label=32;scalar=64";
    class       volVectorField;
    location    "89";
    object      U;
}
// * * * * * * * * * * * * * * * * * * * * * * * * * * * * * * * * * * * * * //

dimensions      [0 1 -1 0 0 0 0];

internalField   nonuniform List<vector> 
200
(
(0.000255564 -0.000832951 0)
(0.00163036 -0.00110587 0)
(0.00323469 -0.00085716 0)
(0.00460352 -0.000518158 0)
(0.00553314 -0.00024812 0)
(0.00611085 -9.01758e-05 0)
(0.00647629 -3.87821e-05 0)
(0.00676237 -7.01081e-05 0)
(0.00707538 -0.000160142 0)
(0.00749355 -0.000293013 0)
(0.0080731 -0.000462535 0)
(0.0088544 -0.000668696 0)
(0.0098617 -0.000908497 0)
(0.0110881 -0.00115881 0)
(0.012451 -0.00134639 0)
(0.0136913 -0.00129453 0)
(0.0142178 -0.000636513 0)
(0.0131098 0.00119355 0)
(0.00942107 0.00430041 0)
(0.00284878 0.00603823 0)
(0.00039832 -0.00349667 0)
(0.00265296 -0.00567063 0)
(0.00523018 -0.00534314 0)
(0.00754768 -0.00409993 0)
(0.00931409 -0.00280007 0)
(0.0105564 -0.00183035 0)
(0.0114245 -0.00129358 0)
(0.0120826 -0.00115206 0)
(0.0126669 -0.0013186 0)
(0.0132735 -0.00170481 0)
(0.0139591 -0.00223708 0)
(0.0147413 -0.00284639 0)
(0.0155914 -0.00343258 0)
(0.0164108 -0.00380036 0)
(0.0169877 -0.00356618 0)
(0.016943 -0.00205279 0)
(0.0156695 0.00173034 0)
(0.012473 0.00853628 0)
(0.00729065 0.0168648 0)
(0.0012512 0.0173287 0)
(0.000427234 -0.00653603 0)
(0.00279436 -0.0109175 0)
(0.00540847 -0.01061 0)
(0.00774567 -0.00845679 0)
(0.00953451 -0.00607229 0)
(0.0108044 -0.00418853 0)
(0.0116936 -0.00301655 0)
(0.012344 -0.00250664 0)
(0.0128649 -0.00250856 0)
(0.0133259 -0.00285567 0)
(0.0137597 -0.00339299 0)
(0.0141632 -0.00396068 0)
(0.0144899 -0.00433753 0)
(0.0146304 -0.00414942 0)
(0.014383 -0.00276353 0)
(0.0134178 0.000760648 0)
(0.0113905 0.00738509 0)
(0.00813253 0.0172072 0)
(0.0040704 0.0268867 0)
(0.000482652 0.023425 0)
(0.000409217 -0.00955602 0)
(0.00256769 -0.0158937 0)
(0.00479386 -0.0153972 0)
(0.00666797 -0.01227 0)
(0.00801391 -0.00883927 0)
(0.00891038 -0.00611808 0)
(0.00950036 -0.00437008 0)
(0.00990216 -0.00350001 0)
(0.0101902 -0.00328489 0)
(0.0104028 -0.00348908 0)
(0.0105535 -0.00389747 0)
(0.0106359 -0.00428659 0)
(0.0106158 -0.00434603 0)
(0.0104135 -0.00356873 0)
(0.0098831 -0.00116161 0)
(0.00879955 0.00389405 0)
(0.00701996 0.0123628 0)
(0.00455182 0.0237153 0)
(0.00187986 0.0332204 0)
(0.000100243 0.0262955 0)
(0.000369149 -0.0122401 0)
(0.00210192 -0.0199558 0)
(0.00364777 -0.018962 0)
(0.00476584 -0.0148307 0)
(0.00542913 -0.0105025 0)
(0.00577898 -0.00715569 0)
(0.0059556 -0.00502044 0)
(0.00604256 -0.00391365 0)
(0.00607466 -0.00353668 0)
(0.00606197 -0.00360797 0)
(0.00600661 -0.00388624 0)
(0.00590551 -0.00411852 0)
(0.00574014 -0.00393669 0)
(0.00545801 -0.00273564 0)
(0.0049513 0.000384843 0)
(0.00410859 0.00642311 0)
(0.00289107 0.0159342 0)
(0.00143297 0.027807 0)
(0.000150513 0.0364482 0)
(-0.000168814 0.0270788 0)
(0.000296349 -0.014352 0)
(0.00134721 -0.0226178 0)
(0.00191259 -0.0208034 0)
(0.00202862 -0.0157527 0)
(0.00185909 -0.0108152 0)
(0.00158741 -0.00716438 0)
(0.00131637 -0.00490424 0)
(0.00107374 -0.00374172 0)
(0.000852251 -0.00332251 0)
(0.000640553 -0.00335219 0)
(0.000432874 -0.00358942 0)
(0.000222577 -0.00376511 0)
(-9.87742e-06 -0.00346312 0)
(-0.000302847 -0.0020083 0)
(-0.000708874 0.00153599 0)
(-0.00120646 0.00806466 0)
(-0.00167691 0.0178452 0)
(-0.00187009 0.0292983 0)
(-0.00150592 0.036623 0)
(-0.000367404 0.026078 0)
(0.000166194 -0.0154825 0)
(0.000117992 -0.0231867 0)
(-0.0006975 -0.0202998 0)
(-0.00182915 -0.0146233 0)
(-0.00294131 -0.00955984 0)
(-0.0038772 -0.00604331 0)
(-0.00461634 -0.00397323 0)
(-0.00520016 -0.00296423 0)
(-0.00567744 -0.00265005 0)
(-0.00608302 -0.00275247 0)
(-0.00643951 -0.00303711 0)
(-0.00676653 -0.00322012 0)
(-0.00708235 -0.00286673 0)
(-0.00738415 -0.00132604 0)
(-0.00760527 0.00221759 0)
(-0.00755509 0.00845555 0)
(-0.00696095 0.0174397 0)
(-0.00555242 0.027524 0)
(-0.00333406 0.0334138 0)
(-0.000617809 0.0231784 0)
(-0.000136988 -0.0148812 0)
(-0.0019187 -0.0205766 0)
(-0.00449118 -0.0167104 0)
(-0.00700341 -0.0111169 0)
(-0.00902814 -0.00663961 0)
(-0.010523 -0.00378001 0)
(-0.0116012 -0.00224378 0)
(-0.0123977 -0.00161265 0)
(-0.0130209 -0.00155102 0)
(-0.0135466 -0.00181823 0)
(-0.0140239 -0.00220764 0)
(-0.0144747 -0.00246421 0)
(-0.0148807 -0.00221603 0)
(-0.0151513 -0.000947122 0)
(-0.0150699 0.00194474 0)
(-0.0143046 0.00695974 0)
(-0.0124785 0.0140872 0)
(-0.00935451 0.0219774 0)
(-0.00522889 0.0264629 0)
(-0.000892008 0.0182595 0)
(-0.000742342 -0.0114274 0)
(-0.00484706 -0.0138498 0)
(-0.00913418 -0.00981207 0)
(-0.0125586 -0.00547181 0)
(-0.0148336 -0.00250068 0)
(-0.0162163 -0.000888246 0)
(-0.0170492 -0.000225239 0)
(-0.017599 -0.00013715 0)
(-0.018037 -0.000373614 0)
(-0.0184689 -0.000777381 0)
(-0.0189517 -0.00122408 0)
(-0.0194892 -0.0015654 0)
(-0.0200157 -0.00158604 0)
(-0.0203642 -0.000986326 0)
(-0.020227 0.000600131 0)
(-0.0191355 0.00353308 0)
(-0.0165986 0.00788001 0)
(-0.0123385 0.0128789 0)
(-0.00680307 0.0160033 0)
(-0.00116026 0.0113987 0)
(-0.00181604 -0.00388673 0)
(-0.00656911 -0.0036074 0)
(-0.0101906 -0.00185802 0)
(-0.0122949 -0.000543417 0)
(-0.0131882 0.000128758 0)
(-0.013422 0.000370511 0)
(-0.0133884 0.000379283 0)
(-0.0133035 0.000279764 0)
(-0.0132867 0.00013404 0)
(-0.013402 -3.22629e-05 0)
(-0.013679 -0.000206017 0)
(-0.0141155 -0.000372523 0)
(-0.0146594 -0.00050145 0)
(-0.0151815 -0.000535964 0)
(-0.0154383 -0.000379787 0)
(-0.0150671 0.000118873 0)
(-0.0135759 0.00109478 0)
(-0.0105538 0.00249958 0)
(-0.00620964 0.00375476 0)
(-0.00148884 0.0032008 0)
)
;

boundaryField
{
    leftWall
    {
        type            fixedValue;
        value           uniform (0 0 0);
    }
    rightWall
    {
        type            fixedValue;
        value           uniform (0 0 0);
    }
    topWall
    {
        type            fixedValue;
        value           uniform (0 0 0);
    }
    bottomWall
    {
        type            fixedValue;
        value           uniform (0 0 0);
    }
    frontAndBackPlanes
    {
        type            empty;
    }
}


// ************************************************************************* //
