/*--------------------------------*- C++ -*----------------------------------*\
| =========                 |                                                 |
| \\      /  F ield         | OpenFOAM: The Open Source CFD Toolbox           |
|  \\    /   O peration     | Version:  2506                                  |
|   \\  /    A nd           | Website:  www.openfoam.com                      |
|    \\/     M anipulation  |                                                 |
\*---------------------------------------------------------------------------*/
FoamFile
{
    version     2.0;
    format      ascii;
    arch        "LSB;label=32;scalar=64";
    class       volScalarField;
    location    "62";
    object      p_rgh;
}
// * * * * * * * * * * * * * * * * * * * * * * * * * * * * * * * * * * * * * //

dimensions      [1 -1 -2 0 0 0 0];

internalField   nonuniform List<scalar> 
200
(
100000
100000
100000
100000
100000
100000
100000
100000
99999.9
99999.9
99999.9
99999.8
99999.8
99999.7
99999.7
99999.6
99999.4
99999.1
99998.7
99998.1
100000
100000
100000
100000
100000
99999.9
99999.9
99999.9
99999.9
99999.8
99999.8
99999.8
99999.8
99999.7
99999.7
99999.6
99999.5
99999.2
99998.5
99997
100000
100000
99999.9
99999.8
99999.8
99999.7
99999.7
99999.7
99999.7
99999.7
99999.6
99999.6
99999.6
99999.6
99999.6
99999.6
99999.4
99999
99997.8
99995.3
100000
99999.9
99999.7
99999.5
99999.4
99999.3
99999.3
99999.3
99999.3
99999.3
99999.3
99999.3
99999.4
99999.4
99999.5
99999.5
99999.3
99998.6
99996.8
99993.4
100001
99999.8
99999.3
99999
99998.8
99998.8
99998.7
99998.8
99998.8
99998.8
99998.8
99998.9
99999
99999.1
99999.2
99999.2
99998.9
99997.9
99995.6
99991.4
100001
99999.7
99998.8
99998.3
99998.1
99998
99998
99998
99998
99998.1
99998.1
99998.2
99998.3
99998.5
99998.7
99998.7
99998.2
99996.9
99994.1
99989.5
100001
99999.4
99998.2
99997.5
99997.2
99997
99997
99997
99997
99997
99997
99997
99997.2
99997.3
99997.4
99997.3
99996.8
99995.3
99992.4
99987.7
100002
99999.1
99997.4
99996.5
99996
99995.8
99995.6
99995.5
99995.4
99995.2
99995.2
99995.1
99995.1
99995.2
99995.2
99995.1
99994.5
99993.1
99990.4
99985.9
100002
99998.6
99996.6
99995.4
99994.7
99994.3
99993.9
99993.6
99993.3
99993
99992.7
99992.5
99992.3
99992.2
99992
99991.8
99991.3
99990.2
99988
99984.3
100002
99998.3
99996
99994.7
99993.8
99993.2
99992.7
99992.3
99991.8
99991.4
99991
99990.5
99990.1
99989.7
99989.3
99988.8
99988.2
99987.3
99985.7
99983
)
;

boundaryField
{
    leftWall
    {
        type            fixedFluxPressure;
        gradient        nonuniform List<scalar> 10(0.127966 0.952593 3.28247 7.73108 14.6305 24.2418 37.0719 54.8753 77.5971 98.2984);
        value           nonuniform List<scalar> 10(100000 100000 100000 100000 100001 100001 100002 100003 100004 100004);
    }
    rightWall
    {
        type            fixedFluxPressure;
        gradient        nonuniform List<scalar> 10(-17.0292 -47.0823 -70.2179 -87.5641 -99.418 -107.758 -111.259 -106.877 -91.4127 -68.1877);
        value           nonuniform List<scalar> 10(99997.7 99995.8 99993.5 99991.2 99989 99986.8 99984.9 99983.3 99982.1 99981.3);
    }
    topWall
    {
        type            fixedFluxPressure;
        gradient        uniform 0;
        value           nonuniform List<scalar> 
20
(
100000
100000
100000
100000
100000
100000
100000
100000
99999.9
99999.9
99999.9
99999.8
99999.8
99999.7
99999.7
99999.6
99999.4
99999.1
99998.7
99998.1
)
;
    }
    bottomWall
    {
        type            fixedFluxPressure;
        gradient        uniform 0;
        value           nonuniform List<scalar> 
20
(
100002
99998.3
99996
99994.7
99993.8
99993.2
99992.7
99992.3
99991.8
99991.4
99991
99990.5
99990.1
99989.7
99989.3
99988.8
99988.2
99987.3
99985.7
99983
)
;
    }
    frontAndBackPlanes
    {
        type            empty;
    }
}


// ************************************************************************* //
