/*--------------------------------*- C++ -*----------------------------------*\
| =========                 |                                                 |
| \\      /  F ield         | OpenFOAM: The Open Source CFD Toolbox           |
|  \\    /   O peration     | Version:  2506                                  |
|   \\  /    A nd           | Website:  www.openfoam.com                      |
|    \\/     M anipulation  |                                                 |
\*---------------------------------------------------------------------------*/
FoamFile
{
    version     2.0;
    format      ascii;
    arch        "LSB;label=32;scalar=64";
    class       surfaceScalarField;
    location    "62";
    object      phi;
}
// * * * * * * * * * * * * * * * * * * * * * * * * * * * * * * * * * * * * * //

dimensions      [1 0 -1 0 0 0 0];

oriented        oriented;

internalField   nonuniform List<scalar> 
370
(
7.11678e-05
-0.000142275
0.000319884
-0.000248651
0.000579394
-0.000259413
0.000807111
-0.000227599
0.000991776
-0.000184535
0.00114099
-0.000149073
0.00127054
-0.000129406
0.00139793
-0.000127245
0.00153954
-0.000141458
0.00170983
-0.000170135
0.00192121
-0.000211211
0.00218305
-0.000261674
0.0024981
-0.000314875
0.00285463
-0.000356343
0.00321173
-0.000356914
0.00347413
-0.000262209
0.00344378
3.05456e-05
0.00289919
0.000544779
0.00159991
0.00129945
0.00160001
0.000225172
-0.000367405
0.000657558
-0.000680922
0.00112842
-0.000730103
0.00155387
-0.000652855
0.00190927
-0.000539714
0.00220069
-0.000440281
0.00244722
-0.000375711
0.0026707
-0.000350495
0.0028905
-0.000361035
0.00312112
-0.000400523
0.00337053
-0.000460386
0.00363754
-0.000528443
0.00390656
-0.000583644
0.00413799
-0.000587517
0.00425477
-0.000473433
0.00413208
-0.000139256
0.00362145
0.000541431
0.00254793
0.00161855
0.00104785
0.00279976
0.00264797
0.00028521
-0.000652549
0.000791666
-0.00118719
0.00132228
-0.00126046
0.00178795
-0.00111821
0.00216578
-0.000917214
0.00246496
-0.000739132
0.00270578
-0.0006162
0.00290875
-0.000553131
0.00308988
-0.000541837
0.00325909
-0.000569401
0.00341932
-0.000620281
0.00356455
-0.000673333
0.00367527
-0.000694019
0.00371114
-0.000623038
0.00360396
-0.000365895
0.00326034
0.000204706
0.00260211
0.00120001
0.00163119
0.00258977
0.000574052
0.00385717
0.00322215
0.000300227
-0.000952686
0.000803833
-0.00169055
0.00129882
-0.00175509
0.00170409
-0.00152307
0.00200897
-0.00122167
0.0022313
-0.000961024
0.00239454
-0.000779011
0.00251812
-0.000676292
0.00261499
-0.000638279
0.00269216
-0.000646154
0.00275156
-0.000679266
0.00278911
-0.00071046
0.00279104
-0.000695516
0.00272796
-0.000559525
0.00255106
-0.000188561
0.00220052
0.000555674
0.00164507
0.00175587
0.00093455
0.00330067
0.000271923
0.00452009
0.00349421
0.000283455
-0.00123603
0.000714653
-0.00212145
0.00109383
-0.00213385
0.00136449
-0.00179325
0.00153659
-0.00139328
0.00163859
-0.00106252
0.00169584
-0.000835772
0.00172498
-0.00070495
0.00173525
-0.000648072
0.00173149
-0.000641924
0.0017159
-0.000663192
0.00168715
-0.000681225
0.00163709
-0.000644966
0.00154643
-0.000468369
0.0013826
-2.42303e-05
0.00111177
0.000826998
0.000734566
0.00213354
0.000323884
0.00371177
3.65453e-05
0.00480776
0.0035309
0.000224265
-0.00146017
0.000497877
-0.00239473
0.000672518
-0.00230802
0.000737778
-0.00185798
0.000730471
-0.00138543
0.000685819
-0.00101733
0.000625174
-0.000774607
0.000558374
-0.000637638
0.00048943
-0.000578621
0.000420444
-0.000572431
0.000352264
-0.000594502
0.000282567
-0.00061101
0.000203481
-0.000565352
0.000102037
-0.000366383
-3.23227e-05
0.000110688
-0.000186512
0.000981734
-0.000319983
0.00226752
-0.000353856
0.00374609
-0.000217701
0.00467194
0.00331333
9.41819e-05
-0.00155422
8.6196e-05
-0.00238636
-5.25474e-05
-0.00216877
-0.000261717
-0.00164826
-0.000485233
-0.00116137
-0.000693663
-0.000808366
-0.000878573
-0.000589172
-0.00104136
-0.000474336
-0.00118571
-0.000433755
-0.00131502
-0.000442609
-0.0014329
-0.000476105
-0.00154405
-0.000499344
-0.00165222
-0.000456649
-0.00175258
-0.000265485
-0.00181614
0.000174796
-0.00178124
0.000947379
-0.00157078
0.00205757
-0.00112557
0.00330132
-0.000491553
0.00403825
0.00282191
-0.000155036
-0.00139902
-0.000591813
-0.00194918
-0.00113792
-0.00162214
-0.00165685
-0.00112879
-0.00209406
-0.000723625
-0.0024452
-0.000456702
-0.00272634
-0.000307526
-0.0029573
-0.000242869
-0.00315521
-0.000235352
-0.00333302
-0.000264308
-0.00349909
-0.000309546
-0.00365439
-0.000343563
-0.0037857
-0.000324859
-0.00385528
-0.000195409
-0.00379271
0.000112712
-0.00350154
0.000656694
-0.00289041
0.00144689
-0.00193082
0.00234213
-0.000780467
0.00288819
0.00204157
-0.000537998
-0.000860838
-0.00149019
-0.000996564
-0.00240148
-0.000710317
-0.00310984
-0.000419901
-0.00361362
-0.000219326
-0.0039633
-0.000106532
-0.00421421
-5.61459e-05
-0.00441142
-4.51973e-05
-0.00458731
-5.90166e-05
-0.00476283
-8.83577e-05
-0.00494741
-0.00012455
-0.00513454
-0.000156018
-0.00529356
-0.00016544
-0.00536056
-0.000128014
-0.00524047
-6.99325e-06
-0.00480002
0.000216631
-0.00392642
0.000573657
-0.00259391
0.00100994
-0.00102752
0.00132205
0.00101415
-0.000860641
-0.00185677
-0.00256658
-0.00298597
-0.00320481
-0.00331089
-0.00336661
-0.0034114
-0.00347002
-0.00355801
-0.00368221
-0.00383789
-0.00400301
-0.00413072
-0.00413743
-0.00392052
-0.00334661
-0.00233644
-0.00101422
)
;

boundaryField
{
    leftWall
    {
        type            calculated;
        value           uniform 0;
    }
    rightWall
    {
        type            calculated;
        value           nonuniform List<scalar> 10(0 2.1684e-19 -4.33681e-19 4.33681e-19 0 0 0 0 -4.33681e-19 0);
    }
    topWall
    {
        type            calculated;
        value           uniform 0;
    }
    bottomWall
    {
        type            calculated;
        value           uniform 0;
    }
    frontAndBackPlanes
    {
        type            empty;
    }
}


// ************************************************************************* //
