/*--------------------------------*- C++ -*----------------------------------*\
| =========                 |                                                 |
| \\      /  F ield         | OpenFOAM: The Open Source CFD Toolbox           |
|  \\    /   O peration     | Version:  2506                                  |
|   \\  /    A nd           | Website:  www.openfoam.com                      |
|    \\/     M anipulation  |                                                 |
\*---------------------------------------------------------------------------*/
FoamFile
{
    version     2.0;
    format      ascii;
    arch        "LSB;label=32;scalar=64";
    class       volScalarField;
    location    "62";
    object      T;
}
// * * * * * * * * * * * * * * * * * * * * * * * * * * * * * * * * * * * * * //

dimensions      [0 0 0 1 0 0 0];

internalField   nonuniform List<scalar> 
200
(
273.152
273.157
273.161
273.163
273.165
273.165
273.166
273.166
273.167
273.167
273.168
273.169
273.17
273.171
273.174
273.182
273.205
273.268
273.431
273.807
273.156
273.167
273.176
273.182
273.185
273.187
273.187
273.188
273.188
273.188
273.189
273.19
273.19
273.19
273.191
273.195
273.214
273.277
273.449
273.833
273.162
273.186
273.203
273.215
273.221
273.224
273.224
273.224
273.224
273.223
273.223
273.223
273.221
273.219
273.216
273.218
273.237
273.305
273.487
273.866
273.171
273.209
273.239
273.257
273.267
273.27
273.271
273.269
273.268
273.266
273.264
273.262
273.257
273.251
273.244
273.244
273.265
273.34
273.531
273.897
273.18
273.237
273.279
273.305
273.318
273.322
273.322
273.319
273.317
273.314
273.311
273.306
273.298
273.288
273.276
273.275
273.299
273.383
273.58
273.926
273.191
273.268
273.323
273.357
273.372
273.377
273.376
273.374
273.372
273.369
273.366
273.36
273.35
273.336
273.323
273.324
273.356
273.448
273.639
273.952
273.203
273.301
273.371
273.411
273.429
273.435
273.437
273.437
273.438
273.438
273.437
273.433
273.425
273.414
273.407
273.414
273.449
273.535
273.706
273.977
273.219
273.34
273.421
273.466
273.489
273.501
273.509
273.516
273.523
273.53
273.534
273.536
273.536
273.534
273.534
273.543
273.575
273.647
273.785
274.006
273.236
273.376
273.466
273.519
273.55
273.572
273.59
273.606
273.621
273.635
273.647
273.659
273.669
273.678
273.687
273.699
273.726
273.779
273.878
274.04
273.247
273.395
273.49
273.547
273.585
273.613
273.636
273.658
273.679
273.7
273.721
273.742
273.763
273.784
273.806
273.829
273.858
273.901
273.969
274.075
)
;

boundaryField
{
    leftWall
    {
        type            fixedValue;
        value           uniform 273.15;
    }
    rightWall
    {
        type            customNeumannDirichletCoupledBoundary;
        refValue        nonuniform List<scalar> 10(274.126 274.127 274.129 274.131 274.133 274.135 274.137 274.139 274.141 274.143);
        refGradient     uniform 0;
        valueFraction   uniform 1;
        source          uniform 0;
        value           nonuniform List<scalar> 10(274.126 274.127 274.129 274.131 274.133 274.135 274.137 274.139 274.141 274.143);
        kappaMethod     fluidThermo;
    }
    topWall
    {
        type            zeroGradient;
    }
    bottomWall
    {
        type            zeroGradient;
    }
    frontAndBackPlanes
    {
        type            empty;
    }
}


// ************************************************************************* //
