/*--------------------------------*- C++ -*----------------------------------*\
| =========                 |                                                 |
| \\      /  F ield         | OpenFOAM: The Open Source CFD Toolbox           |
|  \\    /   O peration     | Version:  2506                                  |
|   \\  /    A nd           | Website:  www.openfoam.com                      |
|    \\/     M anipulation  |                                                 |
\*---------------------------------------------------------------------------*/
FoamFile
{
    version     2.0;
    format      ascii;
    arch        "LSB;label=32;scalar=64";
    class       volVectorField;
    location    "62";
    object      U;
}
// * * * * * * * * * * * * * * * * * * * * * * * * * * * * * * * * * * * * * //

dimensions      [0 1 -1 0 0 0 0];

internalField   nonuniform List<vector> 
200
(
(5.37215e-06 -0.000437759 0)
(0.000742707 -0.000643579 0)
(0.00184157 -0.000570274 0)
(0.00291707 -0.000437408 0)
(0.00378324 -0.000312373 0)
(0.00446951 -0.000228285 0)
(0.00503645 -0.000198299 0)
(0.00555729 -0.000221629 0)
(0.00610431 -0.000293396 0)
(0.00674278 -0.000410532 0)
(0.00752988 -0.000573276 0)
(0.00851366 -0.000782499 0)
(0.00972548 -0.00103162 0)
(0.011159 -0.00129053 0)
(0.012723 -0.00147821 0)
(0.0141398 -0.00141346 0)
(0.0147839 -0.000725324 0)
(0.0137026 0.00118367 0)
(0.00990129 0.00445149 0)
(0.00300577 0.0063543 0)
(0.000238266 -0.00203835 0)
(0.00177117 -0.00368871 0)
(0.00371634 -0.0039112 0)
(0.00563558 -0.00347374 0)
(0.00727994 -0.0028544 0)
(0.00861955 -0.00232909 0)
(0.0097219 -0.00201836 0)
(0.0106815 -0.00194988 0)
(0.0115888 -0.00210714 0)
(0.0125164 -0.00245787 0)
(0.0135136 -0.00296232 0)
(0.0145983 -0.00356194 0)
(0.0157421 -0.004146 0)
(0.0168393 -0.00449304 0)
(0.0176597 -0.00418765 0)
(0.0177933 -0.00252648 0)
(0.0165971 0.00151024 0)
(0.0133109 0.0087285 0)
(0.00784365 0.0176086 0)
(0.0013639 0.0183303 0)
(0.000317907 -0.00421386 0)
(0.00219391 -0.00772533 0)
(0.00441701 -0.00827598 0)
(0.00654608 -0.00740929 0)
(0.0083217 -0.00613642 0)
(0.00972377 -0.00500383 0)
(0.0108306 -0.0042399 0)
(0.0117375 -0.00388954 0)
(0.0125247 -0.00390848 0)
(0.0132479 -0.00421597 0)
(0.0139355 -0.00471009 0)
(0.0145841 -0.00524825 0)
(0.0151458 -0.00559269 0)
(0.0155032 -0.0053255 0)
(0.0154345 -0.0037552 0)
(0.0145776 0.000115603 0)
(0.0125171 0.00731585 0)
(0.00905164 0.0179252 0)
(0.00461759 0.028446 0)
(0.000577221 0.0250761 0)
(0.00034538 -0.00671173 0)
(0.00228184 -0.0120864 0)
(0.00442079 -0.0127357 0)
(0.00634184 -0.0112249 0)
(0.00783208 -0.00914858 0)
(0.0089174 -0.00731578 0)
(0.00970142 -0.00603177 0)
(0.0102828 -0.00532856 0)
(0.0107314 -0.00511583 0)
(0.0110888 -0.00526057 0)
(0.0113739 -0.00560794 0)
(0.0115842 -0.00595093 0)
(0.0116865 -0.00595425 0)
(0.0115968 -0.00504915 0)
(0.0111532 -0.00235175 0)
(0.0100859 0.00326647 0)
(0.00819428 0.0126185 0)
(0.00545534 0.0250998 0)
(0.00238489 0.0356534 0)
(0.00018139 0.0285467 0)
(0.000348148 -0.00920548 0)
(0.00210637 -0.0161245 0)
(0.00383702 -0.016545 0)
(0.00521659 -0.0141908 0)
(0.00613576 -0.0112494 0)
(0.00668744 -0.00874129 0)
(0.00699931 -0.00699031 0)
(0.00716521 -0.00597615 0)
(0.00723887 -0.00554832 0)
(0.00724794 -0.00552898 0)
(0.00720656 -0.00573125 0)
(0.00711793 -0.00591075 0)
(0.00696524 -0.00566534 0)
(0.00669469 -0.00431358 0)
(0.00619758 -0.000832383 0)
(0.00529329 0.00595318 0)
(0.00392044 0.0166128 0)
(0.00218407 0.0298922 0)
(0.000545096 0.0397051 0)
(-0.000108886 0.0298236 0)
(0.000311115 -0.0114089 0)
(0.00158493 -0.0192493 0)
(0.00252762 -0.0190547 0)
(0.00302051 -0.0157538 0)
(0.00312052 -0.0120421 0)
(0.00298888 -0.00903597 0)
(0.00275266 -0.00699665 0)
(0.00247787 -0.00581701 0)
(0.00219041 -0.00528752 0)
(0.00190079 -0.00520288 0)
(0.00161482 -0.0053613 0)
(0.00132984 -0.00549114 0)
(0.00102459 -0.00513325 0)
(0.000655738 -0.00352246 0)
(0.000161443 0.000436654 0)
(-0.000468952 0.00785315 0)
(-0.00110927 0.0189747 0)
(-0.00150579 0.0320034 0)
(-0.0013525 0.0404977 0)
(-0.000357599 0.029119 0)
(0.000200947 -0.0128596 0)
(0.000510275 -0.0205995 0)
(0.000157914 -0.019425 0)
(-0.000621756 -0.015275 0)
(-0.00156031 -0.0111174 0)
(-0.00247901 -0.00797308 0)
(-0.00330491 -0.00594748 0)
(-0.0040295 -0.00483163 0)
(-0.00466759 -0.00437531 0)
(-0.00523563 -0.00436267 0)
(-0.00574898 -0.00457917 0)
(-0.00622758 -0.00472327 0)
(-0.00669539 -0.00430171 0)
(-0.00715832 -0.00255905 0)
(-0.00755657 0.0014653 0)
(-0.00766595 0.00859511 0)
(-0.00717361 0.0188836 0)
(-0.00578625 0.0304671 0)
(-0.00351153 0.0374055 0)
(-0.000663169 0.0261942 0)
(-6.40174e-05 -0.0127331 0)
(-0.00141126 -0.0188924 0)
(-0.00358734 -0.0165863 0)
(-0.00589612 -0.0121494 0)
(-0.00792302 -0.00822013 0)
(-0.0095658 -0.00548375 0)
(-0.0108705 -0.00385669 0)
(-0.0119233 -0.00306393 0)
(-0.0128057 -0.0028511 0)
(-0.0135821 -0.00301382 0)
(-0.0142994 -0.00334705 0)
(-0.0149831 -0.00356776 0)
(-0.0156178 -0.00324475 0)
(-0.0161073 -0.00177259 0)
(-0.0162128 0.00155529 0)
(-0.0155343 0.00731429 0)
(-0.0136469 0.0155078 0)
(-0.0102849 0.0246204 0)
(-0.00578021 0.0299425 0)
(-0.000997284 0.0208489 0)
(-0.000614172 -0.00991339 0)
(-0.00421103 -0.0130302 0)
(-0.00823831 -0.0101707 0)
(-0.0117023 -0.0065189 0)
(-0.014234 -0.00375346 0)
(-0.0159756 -0.00207596 0)
(-0.0171859 -0.00124612 0)
(-0.0180883 -0.000986952 0)
(-0.0188459 -0.00109247 0)
(-0.0195702 -0.00141775 0)
(-0.0203276 -0.00183049 0)
(-0.0211303 -0.00215689 0)
(-0.0219098 -0.00214 0)
(-0.0224796 -0.00142534 0)
(-0.0224919 0.000413073 0)
(-0.0213979 0.0037872 0)
(-0.0186446 0.00879808 0)
(-0.0139149 0.0145931 0)
(-0.00770869 0.0182961 0)
(-0.00132634 0.0131467 0)
(-0.00154869 -0.00333688 0)
(-0.00581507 -0.00342172 0)
(-0.00941463 -0.0020517 0)
(-0.0118074 -0.000887894 0)
(-0.0131025 -0.000214895 0)
(-0.0137228 8.79494e-05 0)
(-0.0140153 0.000169974 0)
(-0.0141968 0.000131006 0)
(-0.0143972 2.53246e-05 0)
(-0.0146979 -0.000121035 0)
(-0.0151468 -0.000292976 0)
(-0.0157531 -0.000470016 0)
(-0.0164678 -0.000612755 0)
(-0.01715 -0.00065209 0)
(-0.017523 -0.000474864 0)
(-0.0171733 9.54143e-05 0)
(-0.0155348 0.00122861 0)
(-0.0121266 0.00287392 0)
(-0.00717313 0.00435807 0)
(-0.00173568 0.00373937 0)
)
;

boundaryField
{
    leftWall
    {
        type            fixedValue;
        value           uniform (0 0 0);
    }
    rightWall
    {
        type            fixedValue;
        value           uniform (0 0 0);
    }
    topWall
    {
        type            fixedValue;
        value           uniform (0 0 0);
    }
    bottomWall
    {
        type            fixedValue;
        value           uniform (0 0 0);
    }
    frontAndBackPlanes
    {
        type            empty;
    }
}


// ************************************************************************* //
