/*--------------------------------*- C++ -*----------------------------------*\
| =========                 |                                                 |
| \\      /  F ield         | OpenFOAM: The Open Source CFD Toolbox           |
|  \\    /   O peration     | Version:  2506                                  |
|   \\  /    A nd           | Website:  www.openfoam.com                      |
|    \\/     M anipulation  |                                                 |
\*---------------------------------------------------------------------------*/
FoamFile
{
    version     2.0;
    format      ascii;
    arch        "LSB;label=32;scalar=64";
    class       surfaceScalarField;
    location    "5";
    object      phi;
}
// * * * * * * * * * * * * * * * * * * * * * * * * * * * * * * * * * * * * * //

dimensions      [1 0 -1 0 0 0 0];

oriented        oriented;

internalField   nonuniform List<scalar> 
370
(
-0.000130294
-3.82898e-05
-7.98448e-05
-5.04664e-05
-2.82501e-05
-5.16193e-05
3.13016e-05
-5.95792e-05
9.89162e-05
-6.76431e-05
0.000175934
-7.70471e-05
0.000264473
-8.85681e-05
0.000367227
-0.000102784
0.000487777
-0.00012058
0.000630915
-0.00014317
0.000802736
-0.000171852
0.00101025
-0.000207541
0.00125995
-0.000249734
0.00155379
-0.000293869
0.0018804
-0.000326628
0.00219646
-0.000315987
0.00238796
-0.00019108
0.0022244
0.000165009
0.00139758
0.00083017
0.00140121
-2.29852e-05
-1.52808e-05
-1.79303e-05
-5.54962e-05
1.99934e-05
-8.95361e-05
8.14143e-05
-0.000121005
0.000164585
-0.000150823
0.000268282
-0.000180754
0.000392051
-0.000212347
0.000536285
-0.000247029
0.000702159
-0.000286465
0.000891356
-0.000332379
0.00110533
-0.000385841
0.0013437
-0.00044592
0.00160113
-0.000507176
0.00186211
-0.000554861
0.00209162
-0.000556123
0.00222083
-0.0004451
0.00213505
-0.000104818
0.00167824
0.000623463
0.000776287
0.00173596
0.00218161
-1.19843e-05
-3.24112e-06
-8.5181e-06
-5.88969e-05
2.09767e-05
-0.000119
7.32481e-05
-0.000173268
0.000145471
-0.000223046
0.000235963
-0.000271249
0.000343538
-0.000319926
0.000467286
-0.000370782
0.000606357
-0.00042554
0.000759511
-0.000485538
0.000924242
-0.000550576
0.00109526
-0.000616942
0.00126213
-0.000674048
0.00140587
-0.000698601
0.00149466
-0.000644892
0.00148031
-0.000430626
0.00130141
7.46611e-05
0.000912858
0.00101401
0.000372833
0.00228057
0.00255921
-1.08676e-05
7.71208e-06
-1.11152e-05
-5.85464e-05
6.82742e-06
-0.000136892
4.1285e-05
-0.00020771
8.9835e-05
-0.000271593
0.000150677
-0.000332091
0.000222511
-0.000391762
0.000304244
-0.000452516
0.000394692
-0.000515989
0.000492176
-0.000583024
0.000593887
-0.000652289
0.000694916
-0.000717973
0.000786924
-0.000766057
0.00085652
-0.000768194
0.000883816
-0.000672161
0.00084266
-0.000389321
0.000706517
0.000211473
0.000467072
0.00125575
0.000176273
0.00257659
0.00274075
-1.46731e-05
2.25006e-05
-2.46882e-05
-4.8392e-05
-2.24235e-05
-0.000139088
-9.51963e-06
-0.000220592
1.11892e-05
-0.000292296
3.77473e-05
-0.000358648
6.90894e-05
-0.000423103
0.000104711
-0.000488137
0.000144355
-0.000555633
0.000187706
-0.000626375
0.000234011
-0.000698594
0.000281544
-0.000765505
0.000326837
-0.000811349
0.000363707
-0.000805059
0.000382314
-0.000690738
0.000369202
-0.000376043
0.000310567
0.000270849
0.000202647
0.00136619
7.33514e-05
0.00271154
0.00281973
-1.96921e-05
4.23375e-05
-4.09597e-05
-2.69492e-05
-5.56258e-05
-0.000124335
-6.58677e-05
-0.000210322
-7.50132e-05
-0.000283143
-8.50995e-05
-0.000348559
-9.67391e-05
-0.000411462
-0.000109494
-0.00047538
-0.000122171
-0.000542954
-0.000132985
-0.000615559
-0.000139656
-0.000691921
-0.000139577
-0.000765582
-0.000130248
-0.000820677
-0.000110229
-0.000825072
-8.07866e-05
-0.000720143
-4.77302e-05
-0.000408908
-2.10088e-05
0.000244947
-8.07307e-06
0.00135596
-4.20004e-06
0.00271368
0.00282142
-2.19811e-05
6.44927e-05
-5.02929e-05
1.57352e-06
-7.88339e-05
-9.56887e-05
-0.000111127
-0.000177993
-0.000150914
-0.000243347
-0.000199923
-0.000299546
-0.000258107
-0.000353275
-0.000324157
-0.000409328
-0.000395757
-0.00047135
-0.000469498
-0.000541814
-0.000540501
-0.000620914
-0.000601913
-0.000704165
-0.000644604
-0.000777981
-0.000657616
-0.000812046
-0.0006302
-0.000747497
-0.000555917
-0.000482909
-0.000436436
0.00012652
-0.000282526
0.00120516
-0.000112939
0.00255047
0.00271453
-1.51729e-05
7.98695e-05
-3.86253e-05
2.52722e-05
-7.32845e-05
-6.09058e-05
-0.000124209
-0.000127027
-0.000193769
-0.000173773
-0.00028209
-0.00021122
-0.000388194
-0.000247167
-0.000510664
-0.000286852
-0.000647723
-0.000334285
-0.000796753
-0.000392777
-0.000953242
-0.000464418
-0.00110915
-0.000548246
-0.00125084
-0.000636281
-0.00135697
-0.000705887
-0.00139769
-0.000706649
-0.00133733
-0.000542784
-0.00114218
-6.70907e-05
-0.000794805
0.00086166
-0.000336312
0.00209898
0.00238443
1.32429e-05
6.68638e-05
1.45101e-05
2.42936e-05
-1.72615e-05
-2.89865e-05
-8.21468e-05
-6.2088e-05
-0.000174935
-8.09651e-05
-0.000291648
-9.44958e-05
-0.000430553
-0.000108252
-0.000591995
-0.000125399
-0.000777822
-0.000148446
-0.000990704
-0.000179882
-0.00123289
-0.000222217
-0.00150393
-0.000277183
-0.00179672
-0.000343465
-0.00209039
-0.000412142
-0.00233961
-0.000457162
-0.00246153
-0.000419927
-0.00233479
-0.000191248
-0.00179685
0.0003291
-0.000828369
0.00113861
0.00156258
6.71374e-05
9.1777e-05
6.29854e-05
9.84492e-07
-7.9934e-05
-0.000174393
-0.000282611
-0.000407974
-0.000556385
-0.00073623
-0.000958409
-0.00123555
-0.00157896
-0.00199098
-0.00244773
-0.00286625
-0.00305379
-0.00271757
-0.00156953
)
;

boundaryField
{
    leftWall
    {
        type            calculated;
        value           nonuniform List<scalar> 10(0 0 0 0 0 -2.71051e-20 0 0 0 1.0842e-19);
    }
    rightWall
    {
        type            calculated;
        value           nonuniform List<scalar> 10(1.0842e-19 0 0 0 0 0 0 0 0 0);
    }
    topWall
    {
        type            calculated;
        value           uniform 0;
    }
    bottomWall
    {
        type            calculated;
        value           uniform 0;
    }
    frontAndBackPlanes
    {
        type            empty;
    }
}


// ************************************************************************* //
