/*--------------------------------*- C++ -*----------------------------------*\
| =========                 |                                                 |
| \\      /  F ield         | OpenFOAM: The Open Source CFD Toolbox           |
|  \\    /   O peration     | Version:  2506                                  |
|   \\  /    A nd           | Website:  www.openfoam.com                      |
|    \\/     M anipulation  |                                                 |
\*---------------------------------------------------------------------------*/
FoamFile
{
    version     2.0;
    format      ascii;
    arch        "LSB;label=32;scalar=64";
    class       volVectorField;
    location    "5";
    object      U;
}
// * * * * * * * * * * * * * * * * * * * * * * * * * * * * * * * * * * * * * //

dimensions      [0 1 -1 0 0 0 0];

internalField   nonuniform List<vector> 
200
(
(-0.000356496 -0.000232441 0)
(-0.000495969 -0.00028227 0)
(-0.000278245 -0.000205746 0)
(1.10727e-05 -0.00019272 0)
(0.000266618 -0.000198403 0)
(0.000563107 -0.0002113 0)
(0.000906131 -0.000234661 0)
(0.00130253 -0.000270345 0)
(0.00176459 -0.000321182 0)
(0.00230977 -0.000391845 0)
(0.00296109 -0.000488585 0)
(0.00374686 -0.000618255 0)
(0.00469786 -0.000785636 0)
(0.00583859 -0.000986255 0)
(0.00716566 -0.00118862 0)
(0.00859045 -0.00129272 0)
(0.00979655 -0.00103435 0)
(0.0100251 0.000167495 0)
(0.00809373 0.00300123 0)
(0.00271751 0.00574338 0)
(-4.84703e-05 -0.000266252 0)
(-0.000127443 -0.000515878 0)
(-2.19306e-05 -0.000648317 0)
(0.000190889 -0.000795904 0)
(0.000492896 -0.000940521 0)
(0.000882628 -0.00109614 0)
(0.00135676 -0.00127267 0)
(0.0019147 -0.00147933 0)
(0.00255967 -0.00172824 0)
(0.00329811 -0.00203407 0)
(0.00413764 -0.00241015 0)
(0.00508254 -0.00286058 0)
(0.0061247 -0.00336436 0)
(0.00722735 -0.00384267 0)
(0.00829549 -0.0040941 0)
(0.00912452 -0.00367602 0)
(0.0093304 -0.00172689 0)
(0.00829312 0.00308503 0)
(0.00552395 0.0111997 0)
(0.0011008 0.0155242 0)
(-1.88438e-05 -5.63998e-05 0)
(-6.7749e-05 -0.000451231 0)
(1.95803e-06 -0.000868278 0)
(0.000175239 -0.00124276 0)
(0.000436788 -0.00158728 0)
(0.000777426 -0.00192456 0)
(0.00119131 -0.00227055 0)
(0.00167424 -0.00263906 0)
(0.00222284 -0.00304517 0)
(0.00283334 -0.00350257 0)
(0.00349902 -0.00401545 0)
(0.00420535 -0.00456398 0)
(0.00492221 -0.00507861 0)
(0.00559208 -0.00539366 0)
(0.00611292 -0.00516683 0)
(0.00631604 -0.003755 0)
(0.00595418 -9.20614e-05 0)
(0.00478107 0.0070852 0)
(0.00282572 0.0172199 0)
(0.000454384 0.020212 0)
(-1.85183e-05 1.35178e-05 0)
(-6.23929e-05 -0.000504462 0)
(-2.60653e-05 -0.00109316 0)
(8.49046e-05 -0.00162589 0)
(0.000260082 -0.00211145 0)
(0.000489655 -0.00257675 0)
(0.000767346 -0.00304048 0)
(0.00108845 -0.00351724 0)
(0.00144853 -0.00402066 0)
(0.0018421 -0.00455935 0)
(0.0022605 -0.00512589 0)
(0.00268866 -0.00567861 0)
(0.00310036 -0.00611139 0)
(0.00345213 -0.00620338 0)
(0.00367574 -0.00553829 0)
(0.00367055 -0.00339416 0)
(0.00330783 0.00132544 0)
(0.00251492 0.00971805 0)
(0.00138619 0.0205968 0)
(0.000197837 0.0224116 0)
(-2.14743e-05 0.000119005 0)
(-9.34972e-05 -0.000464348 0)
(-0.000108986 -0.00117943 0)
(-7.53074e-05 -0.00182542 0)
(-3.19089e-06 -0.00240265 0)
(9.68393e-05 -0.00294381 0)
(0.000218354 -0.00347286 0)
(0.000358309 -0.00400713 0)
(0.00051542 -0.00456035 0)
(0.000688806 -0.00513817 0)
(0.000876612 -0.00572608 0)
(0.00107417 -0.00626939 0)
(0.00127145 -0.00664115 0)
(0.00144962 -0.00659064 0)
(0.00157634 -0.0056649 0)
(0.00159986 -0.0031101 0)
(0.00145181 0.00216393 0)
(0.00109464 0.0111475 0)
(0.000595591 0.0223063 0)
(8.00399e-05 0.0234322 0)
(-2.69905e-05 0.000264251 0)
(-0.000133348 -0.000331404 0)
(-0.00020603 -0.0011264 0)
(-0.000255227 -0.00183719 0)
(-0.000293341 -0.00245335 0)
(-0.000332033 -0.00301635 0)
(-0.000377031 -0.00355996 0)
(-0.000428493 -0.00410824 0)
(-0.000482762 -0.00467911 0)
(-0.000533509 -0.00528038 0)
(-0.000572225 -0.00589759 0)
(-0.000588619 -0.00647307 0)
(-0.000571537 -0.00687201 0)
(-0.000511386 -0.00682814 0)
(-0.000405816 -0.00586277 0)
(-0.000269413 -0.00318855 0)
(-0.00013894 0.00230661 0)
(-5.90645e-05 0.0115701 0)
(-1.06149e-05 0.0228866 0)
(-6.76229e-06 0.0237687 0)
(-2.95443e-05 0.000446407 0)
(-0.000152655 -0.000110573 0)
(-0.000266373 -0.000935511 0)
(-0.000389486 -0.00165476 0)
(-0.000537408 -0.00224927 0)
(-0.000721474 -0.00277373 0)
(-0.000945222 -0.00327591 0)
(-0.00120555 -0.00379059 0)
(-0.00149476 -0.00434403 0)
(-0.0018011 -0.00495175 0)
(-0.0021078 -0.00560765 0)
(-0.00239099 -0.00626288 0)
(-0.00261752 -0.00678948 0)
(-0.00274458 -0.00692019 0)
(-0.00272494 -0.00615798 0)
(-0.00252057 -0.00367135 0)
(-0.0021153 0.00171213 0)
(-0.00153863 0.0109573 0)
(-0.000813951 0.0223162 0)
(-0.000123967 0.0233997 0)
(-2.0703e-05 0.000619871 0)
(-0.000105667 0.000133697 0)
(-0.000219155 -0.000653167 0)
(-0.000393969 -0.00129696 0)
(-0.000644138 -0.00178526 0)
(-0.00097334 -0.0021922 0)
(-0.0013793 -0.00258048 0)
(-0.00185677 -0.00299458 0)
(-0.00239914 -0.00346862 0)
(-0.0029979 -0.00402818 0)
(-0.00363944 -0.004683 0)
(-0.00429943 -0.00540833 0)
(-0.00493464 -0.00610817 0)
(-0.00547401 -0.0065493 0)
(-0.00581311 -0.00625507 0)
(-0.0058162 -0.00437433 0)
(-0.00531689 0.000346636 0)
(-0.00417928 0.00899048 0)
(-0.00242056 0.0200027 0)
(-0.000403644 0.0217654 0)
(2.05616e-05 0.000662994 0)
(8.40428e-05 0.000258897 0)
(2.63937e-05 -0.000370724 0)
(-0.000177634 -0.00081693 0)
(-0.000510845 -0.00110309 0)
(-0.000949915 -0.00131823 0)
(-0.00148296 -0.00152739 0)
(-0.0021076 -0.0017726 0)
(-0.00282883 -0.00208622 0)
(-0.00365683 -0.00249751 0)
(-0.00460341 -0.00303122 0)
(-0.00567519 -0.00369611 0)
(-0.00686113 -0.00445614 0)
(-0.00811125 -0.00516992 0)
(-0.00930271 -0.00548193 0)
(-0.0101871 -0.00466869 0)
(-0.0103164 -0.0015484 0)
(-0.00898188 0.00511273 0)
(-0.00578148 0.0144362 0)
(-0.00112888 0.0172991 0)
(0.000137428 0.000297112 0)
(0.000367831 0.000122237 0)
(0.00035742 -8.38558e-05 0)
(0.000159185 -0.00019383 0)
(-0.000147611 -0.000242525 0)
(-0.000516379 -0.000270776 0)
(-0.000937922 -0.000301601 0)
(-0.00142099 -0.000347458 0)
(-0.00198559 -0.000417709 0)
(-0.00266167 -0.000522322 0)
(-0.00348991 -0.000673156 0)
(-0.004521 -0.000882651 0)
(-0.00580988 -0.00115675 0)
(-0.00739949 -0.00147543 0)
(-0.00927576 -0.00175157 0)
(-0.0112457 -0.00175867 0)
(-0.0127063 -0.00104557 0)
(-0.0125137 0.00101656 0)
(-0.00940042 0.00453733 0)
(-0.00299664 0.00662904 0)
)
;

boundaryField
{
    leftWall
    {
        type            fixedValue;
        value           uniform (0 0 0);
    }
    rightWall
    {
        type            fixedValue;
        value           uniform (0 0 0);
    }
    topWall
    {
        type            fixedValue;
        value           uniform (0 0 0);
    }
    bottomWall
    {
        type            fixedValue;
        value           uniform (0 0 0);
    }
    frontAndBackPlanes
    {
        type            empty;
    }
}


// ************************************************************************* //
