/*--------------------------------*- C++ -*----------------------------------*\
| =========                 |                                                 |
| \\      /  F ield         | OpenFOAM: The Open Source CFD Toolbox           |
|  \\    /   O peration     | Version:  2506                                  |
|   \\  /    A nd           | Website:  www.openfoam.com                      |
|    \\/     M anipulation  |                                                 |
\*---------------------------------------------------------------------------*/
FoamFile
{
    version     2.0;
    format      ascii;
    arch        "LSB;label=32;scalar=64";
    class       volVectorField;
    location    "106.8";
    object      U;
}
// * * * * * * * * * * * * * * * * * * * * * * * * * * * * * * * * * * * * * //

dimensions      [0 1 -1 0 0 0 0];

internalField   nonuniform List<vector> 
200
(
(0.000393292 -0.00106735 0)
(0.00212795 -0.00137798 0)
(0.00402832 -0.00103086 0)
(0.0055763 -0.000577245 0)
(0.00656174 -0.000224912 0)
(0.00710147 -2.228e-05 0)
(0.00737504 4.56642e-05 0)
(0.00754587 1.4288e-05 0)
(0.00773856 -8.27437e-05 0)
(0.00803984 -0.000222956 0)
(0.00850738 -0.000396583 0)
(0.00917886 -0.000602313 0)
(0.0100746 -0.00083754 0)
(0.011185 -0.00108098 0)
(0.0124272 -0.00126219 0)
(0.0135475 -0.00120754 0)
(0.0139741 -0.000556751 0)
(0.0128103 0.00122764 0)
(0.00915166 0.0042254 0)
(0.00275371 0.00584418 0)
(0.000478823 -0.00431227 0)
(0.00310475 -0.00678091 0)
(0.00601762 -0.00617107 0)
(0.00856089 -0.0045086 0)
(0.0104191 -0.00284844 0)
(0.0116437 -0.00163397 0)
(0.0124225 -0.000961338 0)
(0.0129529 -0.000763069 0)
(0.0133937 -0.000918933 0)
(0.0138531 -0.00131337 0)
(0.0143924 -0.00185476 0)
(0.0150295 -0.0024654 0)
(0.0157349 -0.00304492 0)
(0.0164104 -0.00340507 0)
(0.0168499 -0.00317536 0)
(0.0166874 -0.00169752 0)
(0.0153304 0.00198444 0)
(0.012127 0.00856583 0)
(0.00704359 0.0165384 0)
(0.00119891 0.0167767 0)
(0.000475874 -0.00776625 0)
(0.00306505 -0.0126226 0)
(0.00586172 -0.0119004 0)
(0.00830494 -0.00911167 0)
(0.0101163 -0.0061699 0)
(0.0113457 -0.00389792 0)
(0.0121567 -0.00250069 0)
(0.0127108 -0.00188638 0)
(0.0131292 -0.00185705 0)
(0.0134874 -0.00220634 0)
(0.0138197 -0.00275247 0)
(0.0141226 -0.00332251 0)
(0.0143494 -0.00369526 0)
(0.0143917 -0.00350913 0)
(0.0140538 -0.00215623 0)
(0.0130164 0.00126329 0)
(0.0109749 0.00764576 0)
(0.00777778 0.017066 0)
(0.00385356 0.0262368 0)
(0.000445471 0.0226023 0)
(0.000432848 -0.0110002 0)
(0.00266467 -0.017846 0)
(0.00490553 -0.0168156 0)
(0.00674331 -0.0129212 0)
(0.00802056 -0.00884086 0)
(0.00883839 -0.00568353 0)
(0.009355 -0.0036942 0)
(0.00969472 -0.00272075 0)
(0.0099316 -0.00248154 0)
(0.0101009 -0.00269509 0)
(0.0102128 -0.00311696 0)
(0.010258 -0.00351027 0)
(0.0102007 -0.00356649 0)
(0.00996109 -0.0027979 0)
(0.00939584 -0.000452463 0)
(0.00830603 0.00441555 0)
(0.00656631 0.0125217 0)
(0.00420153 0.0233276 0)
(0.00168784 0.0322302 0)
(7.21757e-05 0.0252452 0)
(0.000371359 -0.0137246 0)
(0.00205399 -0.0218446 0)
(0.00347879 -0.0202093 0)
(0.00445289 -0.0152634 0)
(0.00498817 -0.0102964 0)
(0.00524561 -0.00655743 0)
(0.00536812 -0.00423251 0)
(0.00543184 -0.00306568 0)
(0.00546103 -0.00269407 0)
(0.00545667 -0.00279163 0)
(0.00541479 -0.00309137 0)
(0.00532857 -0.00332961 0)
(0.0051771 -0.00314253 0)
(0.00490766 -0.00195169 0)
(0.00441461 0.00108389 0)
(0.00361178 0.00686939 0)
(0.00246739 0.0159182 0)
(0.00113207 0.0271361 0)
(1.82246e-05 0.0351299 0)
(-0.000172265 0.0258378 0)
(0.00028451 -0.0157447 0)
(0.0011968 -0.0242127 0)
(0.00155428 -0.0216842 0)
(0.00147738 -0.0158567 0)
(0.00117399 -0.0103751 0)
(0.000833665 -0.00643591 0)
(0.000545667 -0.0040713 0)
(0.000319317 -0.00290646 0)
(0.000132252 -0.00252577 0)
(-3.67604e-05 -0.0025977 0)
(-0.000199045 -0.00286145 0)
(-0.000364121 -0.00304106 0)
(-0.000551867 -0.00272962 0)
(-0.000796767 -0.00128931 0)
(-0.00114276 0.00214195 0)
(-0.00156334 0.00836569 0)
(-0.00194105 0.0176106 0)
(-0.00202793 0.0283503 0)
(-0.00155934 0.0350498 0)
(-0.000365266 0.0247236 0)
(0.000153836 -0.0166839 0)
(-8.17902e-05 -0.024362 0)
(-0.00113619 -0.0207371 0)
(-0.00244217 -0.0144044 0)
(-0.00364574 -0.00895363 0)
(-0.00460182 -0.00527651 0)
(-0.00531401 -0.00318397 0)
(-0.00584486 -0.00221711 0)
(-0.00625704 -0.0019615 0)
(-0.00659347 -0.00211211 0)
(-0.00688086 -0.00242296 0)
(-0.00713944 -0.00261121 0)
(-0.00738435 -0.00225921 0)
(-0.00760716 -0.000757388 0)
(-0.00773609 0.00264123 0)
(-0.00759374 0.00855917 0)
(-0.00692454 0.017016 0)
(-0.0054748 0.0264259 0)
(-0.0032584 0.0317671 0)
(-0.000596661 0.0218493 0)
(-0.000171307 -0.0158424 0)
(-0.00215657 -0.0213211 0)
(-0.00491572 -0.0167829 0)
(-0.00753178 -0.0106982 0)
(-0.00957151 -0.00598968 0)
(-0.0110185 -0.00307718 0)
(-0.0120149 -0.00157939 0)
(-0.0127149 -0.00102099 0)
(-0.0132368 -0.00103033 0)
(-0.0136621 -0.0013476 0)
(-0.014042 -0.0017621 0)
(-0.0143969 -0.00202668 0)
(-0.0147058 -0.00179072 0)
(-0.0148773 -0.000575392 0)
(-0.0147011 0.00217284 0)
(-0.0138725 0.00691139 0)
(-0.0120381 0.0136022 0)
(-0.00898114 0.0209446 0)
(-0.0049943 0.0250023 0)
(-0.000845135 0.0171169 0)
(-0.000799837 -0.0120992 0)
(-0.00513091 -0.014203 0)
(-0.00953466 -0.00965411 0)
(-0.0129469 -0.00502081 0)
(-0.0151161 -0.00196465 0)
(-0.01635 -0.000384748 0)
(-0.0170326 0.000200395 0)
(-0.0174467 0.000210298 0)
(-0.0177595 -8.65226e-05 0)
(-0.0180751 -0.000528409 0)
(-0.0184494 -0.000992108 0)
(-0.0188823 -0.00133732 0)
(-0.0193062 -0.00136438 0)
(-0.0195592 -0.000796632 0)
(-0.0193464 0.000704356 0)
(-0.0182337 0.00346976 0)
(-0.0157606 0.00754254 0)
(-0.011674 0.012187 0)
(-0.00640973 0.0150255 0)
(-0.0010861 0.0106231 0)
(-0.00193365 -0.00413095 0)
(-0.00689996 -0.00368543 0)
(-0.0105305 -0.00177078 0)
(-0.0125103 -0.000391921 0)
(-0.0132333 0.000278066 0)
(-0.0133038 0.000488052 0)
(-0.0131257 0.000459366 0)
(-0.0129192 0.000333879 0)
(-0.0128093 0.000173966 0)
(-0.0128521 3.04679e-07 0)
(-0.0130642 -0.000174823 0)
(-0.0134366 -0.00033741 0)
(-0.0139143 -0.00045984 0)
(-0.0143711 -0.000489918 0)
(-0.0145768 -0.000338764 0)
(-0.0141881 0.000133317 0)
(-0.0127455 0.00104525 0)
(-0.00987418 0.00234586 0)
(-0.00578476 0.0034947 0)
(-0.00137805 0.00296028 0)
)
;

boundaryField
{
    leftWall
    {
        type            fixedValue;
        value           uniform (0 0 0);
    }
    rightWall
    {
        type            fixedValue;
        value           uniform (0 0 0);
    }
    topWall
    {
        type            fixedValue;
        value           uniform (0 0 0);
    }
    bottomWall
    {
        type            fixedValue;
        value           uniform (0 0 0);
    }
    frontAndBackPlanes
    {
        type            empty;
    }
}


// ************************************************************************* //
