/*--------------------------------*- C++ -*----------------------------------*\
| =========                 |                                                 |
| \\      /  F ield         | OpenFOAM: The Open Source CFD Toolbox           |
|  \\    /   O peration     | Version:  2506                                  |
|   \\  /    A nd           | Website:  www.openfoam.com                      |
|    \\/     M anipulation  |                                                 |
\*---------------------------------------------------------------------------*/
FoamFile
{
    version     2.0;
    format      ascii;
    arch        "LSB;label=32;scalar=64";
    class       volScalarField;
    location    "83.6";
    object      T;
}
// * * * * * * * * * * * * * * * * * * * * * * * * * * * * * * * * * * * * * //

dimensions      [0 0 0 1 0 0 0];

internalField   nonuniform List<scalar> 
200
(
273.157
273.171
273.181
273.188
273.192
273.195
273.196
273.198
273.199
273.2
273.202
273.204
273.206
273.209
273.213
273.222
273.245
273.307
273.467
273.827
273.164
273.189
273.208
273.219
273.225
273.228
273.229
273.23
273.23
273.231
273.233
273.235
273.236
273.237
273.239
273.243
273.262
273.324
273.49
273.854
273.174
273.217
273.249
273.268
273.277
273.281
273.282
273.281
273.28
273.28
273.28
273.28
273.28
273.278
273.276
273.278
273.295
273.36
273.533
273.888
273.185
273.25
273.296
273.323
273.336
273.341
273.34
273.338
273.336
273.334
273.333
273.33
273.327
273.321
273.314
273.314
273.332
273.402
273.581
273.92
273.198
273.284
273.345
273.38
273.396
273.4
273.399
273.395
273.392
273.389
273.385
273.381
273.374
273.364
273.354
273.352
273.374
273.451
273.633
273.949
273.21
273.32
273.396
273.437
273.454
273.458
273.456
273.452
273.449
273.446
273.443
273.438
273.429
273.416
273.406
273.406
273.435
273.518
273.691
273.973
273.225
273.358
273.448
273.494
273.511
273.516
273.515
273.514
273.514
273.514
273.513
273.509
273.503
273.494
273.488
273.494
273.525
273.603
273.755
273.997
273.243
273.401
273.499
273.547
273.569
273.578
273.585
273.591
273.596
273.602
273.606
273.607
273.607
273.606
273.606
273.614
273.642
273.707
273.829
274.024
273.263
273.439
273.544
273.598
273.628
273.646
273.661
273.674
273.687
273.698
273.709
273.719
273.728
273.736
273.744
273.755
273.779
273.827
273.914
274.055
273.277
273.46
273.566
273.625
273.659
273.683
273.703
273.721
273.739
273.756
273.774
273.792
273.81
273.829
273.848
273.869
273.895
273.934
273.994
274.086
)
;

boundaryField
{
    leftWall
    {
        type            fixedValue;
        value           uniform 273.15;
    }
    rightWall
    {
        type            customNeumannDirichletCoupledBoundary;
        refValue        nonuniform List<scalar> 10(274.128 274.129 274.131 274.133 274.135 274.137 274.139 274.14 274.142 274.144);
        refGradient     uniform 0;
        valueFraction   uniform 1;
        source          uniform 0;
        value           nonuniform List<scalar> 10(274.128 274.129 274.131 274.133 274.135 274.137 274.139 274.14 274.142 274.144);
        kappaMethod     fluidThermo;
    }
    topWall
    {
        type            zeroGradient;
    }
    bottomWall
    {
        type            zeroGradient;
    }
    frontAndBackPlanes
    {
        type            empty;
    }
}


// ************************************************************************* //
