/*--------------------------------*- C++ -*----------------------------------*\
| =========                 |                                                 |
| \\      /  F ield         | OpenFOAM: The Open Source CFD Toolbox           |
|  \\    /   O peration     | Version:  2506                                  |
|   \\  /    A nd           | Website:  www.openfoam.com                      |
|    \\/     M anipulation  |                                                 |
\*---------------------------------------------------------------------------*/
FoamFile
{
    version     2.0;
    format      ascii;
    arch        "LSB;label=32;scalar=64";
    class       volScalarField;
    location    "118";
    object      p_rgh;
}
// * * * * * * * * * * * * * * * * * * * * * * * * * * * * * * * * * * * * * //

dimensions      [1 -1 -2 0 0 0 0];

internalField   nonuniform List<scalar> 
200
(
100000
100000
99999.9
99999.9
99999.8
99999.8
99999.7
99999.6
99999.6
99999.6
99999.5
99999.5
99999.4
99999.3
99999.3
99999.2
99999
99998.8
99998.4
99997.8
100000
100000
99999.8
99999.7
99999.7
99999.6
99999.6
99999.5
99999.5
99999.5
99999.4
99999.4
99999.3
99999.3
99999.2
99999.2
99999.1
99998.8
99998.1
99996.8
100000
99999.9
99999.6
99999.4
99999.3
99999.2
99999.2
99999.2
99999.2
99999.1
99999.1
99999.1
99999.1
99999.1
99999.1
99999
99998.9
99998.5
99997.4
99995.3
100001
99999.8
99999.2
99998.8
99998.7
99998.6
99998.6
99998.6
99998.6
99998.6
99998.7
99998.7
99998.7
99998.7
99998.8
99998.8
99998.6
99998
99996.5
99993.7
100001
99999.7
99998.7
99998.2
99997.9
99997.9
99997.9
99997.9
99998
99998
99998.1
99998.1
99998.2
99998.3
99998.4
99998.4
99998.1
99997.3
99995.3
99992
100002
99999.5
99998.1
99997.4
99997.1
99997
99997.1
99997.2
99997.2
99997.3
99997.3
99997.4
99997.5
99997.6
99997.7
99997.7
99997.3
99996.3
99994
99990.4
100002
99999.3
99997.4
99996.5
99996.2
99996.1
99996.2
99996.2
99996.2
99996.2
99996.2
99996.3
99996.4
99996.5
99996.6
99996.5
99996
99994.8
99992.5
99988.9
100003
99998.9
99996.6
99995.5
99995.1
99995
99994.9
99994.8
99994.7
99994.7
99994.6
99994.6
99994.6
99994.6
99994.7
99994.5
99994.1
99993
99990.8
99987.5
100003
99998.4
99995.7
99994.5
99993.9
99993.6
99993.3
99993.1
99993
99992.8
99992.6
99992.5
99992.3
99992.2
99992.1
99991.9
99991.5
99990.6
99989
99986.2
100004
99998
99995.2
99993.8
99993.1
99992.7
99992.4
99992.1
99991.9
99991.6
99991.3
99991
99990.7
99990.4
99990
99989.7
99989.2
99988.5
99987.2
99985.3
)
;

boundaryField
{
    leftWall
    {
        type            fixedFluxPressure;
        gradient        nonuniform List<scalar> 10(0.807237 4.00283 10.2764 19.6663 32.0762 47.7721 67.7682 95.2847 128.645 160.067);
        value           nonuniform List<scalar> 10(100000 100000 100001 100001 100002 100003 100004 100005 100006 100008);
    }
    rightWall
    {
        type            fixedFluxPressure;
        gradient        nonuniform List<scalar> 10(-14.4913 -39.5001 -57.669 -70.2374 -78.3007 -83.6467 -84.612 -79.2037 -65.744 -48.2805);
        value           nonuniform List<scalar> 10(99997.5 99995.8 99993.9 99991.9 99990 99988.3 99986.8 99985.5 99984.6 99984.1);
    }
    topWall
    {
        type            fixedFluxPressure;
        gradient        uniform 0;
        value           nonuniform List<scalar> 
20
(
100000
100000
99999.9
99999.9
99999.8
99999.8
99999.7
99999.6
99999.6
99999.6
99999.5
99999.5
99999.4
99999.3
99999.3
99999.2
99999
99998.8
99998.4
99997.8
)
;
    }
    bottomWall
    {
        type            fixedFluxPressure;
        gradient        uniform 0;
        value           nonuniform List<scalar> 
20
(
100004
99998
99995.2
99993.8
99993.1
99992.7
99992.4
99992.1
99991.9
99991.6
99991.3
99991
99990.7
99990.4
99990
99989.7
99989.2
99988.5
99987.2
99985.3
)
;
    }
    frontAndBackPlanes
    {
        type            empty;
    }
}


// ************************************************************************* //
