/*--------------------------------*- C++ -*----------------------------------*\
| =========                 |                                                 |
| \\      /  F ield         | OpenFOAM: The Open Source CFD Toolbox           |
|  \\    /   O peration     | Version:  2506                                  |
|   \\  /    A nd           | Website:  www.openfoam.com                      |
|    \\/     M anipulation  |                                                 |
\*---------------------------------------------------------------------------*/
FoamFile
{
    version     2.0;
    format      ascii;
    arch        "LSB;label=32;scalar=64";
    class       surfaceScalarField;
    location    "118";
    object      phi;
}
// * * * * * * * * * * * * * * * * * * * * * * * * * * * * * * * * * * * * * //

dimensions      [1 0 -1 0 0 0 0];

oriented        oriented;

internalField   nonuniform List<scalar> 
370
(
0.000315763
-0.000351387
0.000835296
-0.000519471
0.00128621
-0.000450824
0.00159666
-0.000310338
0.00177555
-0.000178765
0.00186277
-8.70822e-05
0.00190243
-3.95127e-05
0.00193108
-2.84866e-05
0.00197519
-4.3945e-05
0.00205251
-7.71527e-05
0.00217416
-0.000121471
0.00234637
-0.000172025
0.00256964
-0.00022308
0.00283271
-0.00026287
0.00309882
-0.000265907
0.00328014
-0.00018112
0.00320439
7.59599e-05
0.00265863
0.000545971
0.00144212
0.00121669
0.00144222
0.000438265
-0.000789619
0.00117445
-0.00125557
0.00187723
-0.00115348
0.00241981
-0.000852773
0.00278882
-0.000547612
0.00302027
-0.000318367
0.00316351
-0.00018259
0.00326365
-0.000128449
0.00335426
-0.000134381
0.00345628
-0.000178999
0.0035794
-0.000244404
0.00372227
-0.000314702
0.00386977
-0.00037039
0.00398602
-0.000378925
0.00400293
-0.000282615
0.00381464
7.3844e-06
0.00328123
0.000609582
0.00227137
0.00155604
0.000917072
0.00257116
0.00235938
0.000424018
-0.0012136
0.00111505
-0.00194648
0.00177181
-0.00181008
0.0022835
-0.00136428
0.00264085
-0.000904763
0.00287572
-0.00055304
0.00302857
-0.000335237
0.00313388
-0.000233562
0.00321556
-0.000215862
0.0032869
-0.000250135
0.0033516
-0.000308903
0.00340367
-0.000366569
0.0034247
-0.000391212
0.00337873
-0.000332736
0.00320809
-0.000111767
0.00283689
0.000378806
0.00221519
0.00123151
0.00135353
0.00241791
0.00045717
0.0034677
0.00281663
0.000364374
-0.00157792
0.000920678
-0.00250265
0.00141451
-0.00230373
0.00177355
-0.00172311
0.00200922
-0.00114022
0.00215762
-0.000701209
0.00225222
-0.000429617
0.00231558
-0.000296698
0.00235977
-0.000259825
0.00238949
-0.000279643
0.00240449
-0.000323677
0.00239927
-0.000361128
0.00236022
-0.000351944
0.00226147
-0.00023376
0.00206435
8.55769e-05
0.00173163
0.000711756
0.00124859
0.00171477
0.000669759
0.00299696
0.000169494
0.00396814
0.00298621
0.000282163
-0.00186003
0.000652075
-0.00287242
0.000924801
-0.00257626
0.00108095
-0.00187902
0.0011573
-0.00121633
0.00119282
-0.000736499
0.00121132
-0.000447883
0.00122216
-0.000307306
0.00122647
-0.000263915
0.00122287
-0.00027581
0.00120964
-0.000310227
0.00118347
-0.000334729
0.00113576
-0.000304014
0.00104959
-0.000147364
0.000901541
0.000233863
0.000676746
0.000936788
0.000388264
0.00200349
0.000107871
0.00327757
-4.03319e-05
0.00411652
0.00294594
0.000174551
-0.00203452
0.000303241
-0.00300095
0.000308624
-0.00258143
0.000236936
-0.0018071
0.00014549
-0.00112465
6.57789e-05
-0.000656555
5.28276e-06
-0.000387159
-4.06221e-05
-0.000261178
-7.85183e-05
-0.000225796
-0.000112909
-0.000241198
-0.000146346
-0.00027657
-0.000182119
-0.000298735
-0.000226587
-0.000259322
-0.000288262
-8.54598e-05
-0.000369536
0.000315373
-0.000457234
0.00102473
-0.000508683
0.00205517
-0.000452559
0.00322166
-0.000241248
0.00390537
0.00270476
2.64082e-06
-0.0020371
-0.000183538
-0.00281461
-0.000493744
-0.00227101
-0.000812824
-0.00148779
-0.00107751
-0.000859741
-0.00127527
-0.000458563
-0.00141846
-0.000243759
-0.00152427
-0.000155152
-0.00160624
-0.00014361
-0.00167279
-0.000174431
-0.00172929
-0.000219857
-0.00177952
-0.000248291
-0.00182408
-0.000214549
-0.00185469
-5.46286e-05
-0.00184291
0.000303818
-0.00174305
0.000925099
-0.00149302
0.00180536
-0.00104447
0.00277331
-0.000445391
0.00330644
0.00225943
-0.000264496
-0.00177253
-0.000880649
-0.00219828
-0.00155264
-0.00159881
-0.00211446
-0.000925752
-0.00252577
-0.000448212
-0.00280835
-0.000175771
-0.00300001
-5.18878e-05
-0.00313413
-2.08204e-05
-0.00323528
-4.22638e-05
-0.00331943
-9.00847e-05
-0.00339489
-0.000144191
-0.00346119
-0.000181802
-0.00350477
-0.000170774
-0.0034919
-6.7297e-05
-0.00336657
0.000178682
-0.00305459
0.000613317
-0.00248514
0.0012361
-0.00163924
0.00192758
-0.000654204
0.00232153
0.00160527
-0.000685557
-0.0010869
-0.00179877
-0.00108489
-0.00275373
-0.000643641
-0.00340073
-0.000278532
-0.00378262
-6.61174e-05
-0.00399116
3.29812e-05
-0.00410524
6.23862e-05
-0.00417566
4.97816e-05
-0.00423535
1.76129e-05
-0.00430381
-2.14554e-05
-0.00438661
-6.122e-05
-0.00447541
-9.28309e-05
-0.00454294
-0.000103091
-0.00453651
-7.35654e-05
-0.00437934
2.16681e-05
-0.00396731
0.000201439
-0.00321277
0.000481705
-0.00210161
0.000816549
-0.000823764
0.00104378
0.000781552
-0.00108681
-0.00217153
-0.00281496
-0.00309328
-0.0031592
-0.00312603
-0.00306346
-0.0030135
-0.00299573
-0.00301703
-0.0030781
-0.0031708
-0.00327376
-0.0033472
-0.00332542
-0.00312387
-0.00264206
-0.00182543
-0.00078158
)
;

boundaryField
{
    leftWall
    {
        type            calculated;
        value           nonuniform List<scalar> 10(0 0 0 0 0 0 4.33681e-19 0 0 0);
    }
    rightWall
    {
        type            calculated;
        value           nonuniform List<scalar> 10(0 0 0 0 0 0 4.33681e-19 0 0 0);
    }
    topWall
    {
        type            calculated;
        value           uniform 0;
    }
    bottomWall
    {
        type            calculated;
        value           uniform 0;
    }
    frontAndBackPlanes
    {
        type            empty;
    }
}


// ************************************************************************* //
