/*--------------------------------*- C++ -*----------------------------------*\
| =========                 |                                                 |
| \\      /  F ield         | OpenFOAM: The Open Source CFD Toolbox           |
|  \\    /   O peration     | Version:  2506                                  |
|   \\  /    A nd           | Website:  www.openfoam.com                      |
|    \\/     M anipulation  |                                                 |
\*---------------------------------------------------------------------------*/
FoamFile
{
    version     2.0;
    format      ascii;
    arch        "LSB;label=32;scalar=64";
    class       volVectorField;
    location    "118";
    object      U;
}
// * * * * * * * * * * * * * * * * * * * * * * * * * * * * * * * * * * * * * //

dimensions      [0 1 -1 0 0 0 0];

internalField   nonuniform List<vector> 
200
(
(0.000467309 -0.00119529 0)
(0.00239657 -0.00152735 0)
(0.00445935 -0.00112826 0)
(0.00610826 -0.00061364 0)
(0.00712965 -0.000216988 0)
(0.00765533 1.04478e-05 0)
(0.00788537 8.85479e-05 0)
(0.0079989 5.84941e-05 0)
(0.00812987 -4.11563e-05 0)
(0.00836971 -0.000184479 0)
(0.00877737 -0.000359841 0)
(0.00938949 -0.000565152 0)
(0.0102244 -0.000797752 0)
(0.0112706 -0.00103696 0)
(0.0124445 -0.00121352 0)
(0.0134937 -0.00115543 0)
(0.0138576 -0.000506635 0)
(0.0126539 0.00125261 0)
(0.00900462 0.00418674 0)
(0.00270041 0.00573484 0)
(0.000521241 -0.00475193 0)
(0.0033432 -0.00738171 0)
(0.00643458 -0.00662613 0)
(0.00910032 -0.00474475 0)
(0.011012 -0.0028948 0)
(0.0122332 -0.00154909 0)
(0.0129709 -0.000800766 0)
(0.0134395 -0.000567706 0)
(0.0138093 -0.000713278 0)
(0.0141951 -0.00110825 0)
(0.0146604 -0.00165167 0)
(0.0152235 -0.00226081 0)
(0.015854 -0.00283402 0)
(0.0164533 -0.00318534 0)
(0.0168176 -0.00295031 0)
(0.0165878 -0.001482 0)
(0.015179 0.00215199 0)
(0.0119616 0.00861128 0)
(0.00692079 0.0163791 0)
(0.00117256 0.0164773 0)
(0.000500687 -0.00842116 0)
(0.00320266 -0.0135326 0)
(0.00609197 -0.0125971 0)
(0.00858935 -0.00947936 0)
(0.010413 -0.00624796 0)
(0.0116235 -0.0037722 0)
(0.0123968 -0.00225401 0)
(0.0129048 -0.00158051 0)
(0.0132743 -0.00152991 0)
(0.0135835 -0.00187598 0)
(0.0138674 -0.00242314 0)
(0.0141224 -0.0029909 0)
(0.0143009 -0.00335646 0)
(0.0142951 -0.00316253 0)
(0.0139108 -0.00181309 0)
(0.0128335 0.00156569 0)
(0.0107802 0.00783075 0)
(0.00760911 0.0170385 0)
(0.00374984 0.0259238 0)
(0.00042789 0.0221719 0)
(0.000444095 -0.0117604 0)
(0.00270844 -0.0188749 0)
(0.00495148 -0.0175703 0)
(0.00676642 -0.0132816 0)
(0.00800592 -0.00886728 0)
(0.00878258 -0.00548473 0)
(0.00926222 -0.00336894 0)
(0.00957197 -0.00233894 0)
(0.00978532 -0.00208353 0)
(0.00993552 -0.0022982 0)
(0.0100307 -0.00272353 0)
(0.01006 -0.00311504 0)
(0.00998657 -0.00316371 0)
(0.00973112 -0.00238974 0)
(0.0091501 -6.08487e-05 0)
(0.00806214 0.00472579 0)
(0.00634433 0.0126575 0)
(0.00403147 0.0231811 0)
(0.00159554 0.0317527 0)
(5.88183e-05 0.0247068 0)
(0.000371244 -0.0144975 0)
(0.00202183 -0.0228275 0)
(0.00337836 -0.0208644 0)
(0.00427424 -0.0155033 0)
(0.00474138 -0.0102116 0)
(0.0049503 -0.00627331 0)
(0.00504488 -0.00385111 0)
(0.00509735 -0.00265214 0)
(0.00512642 -0.00228066 0)
(0.00512811 -0.00238859 0)
(0.00509505 -0.00269595 0)
(0.00501836 -0.00293326 0)
(0.00487604 -0.00273828 0)
(0.00461592 -0.00154525 0)
(0.00413621 0.00145795 0)
(0.00335749 0.00713267 0)
(0.00225423 0.0159608 0)
(0.000982979 0.0268453 0)
(-4.82979e-05 0.0344896 0)
(-0.000175869 0.02521 0)
(0.000278376 -0.0164632 0)
(0.00111443 -0.0250324 0)
(0.00135975 -0.0221422 0)
(0.00118156 -0.0159232 0)
(0.000808798 -0.010168 0)
(0.000432557 -0.00608386 0)
(0.000134546 -0.00366626 0)
(-8.44628e-05 -0.00249928 0)
(-0.000254314 -0.00213723 0)
(-0.000401921 -0.00222847 0)
(-0.000540959 -0.00250254 0)
(-0.000682287 -0.00268059 0)
(-0.000845922 -0.00236028 0)
(-0.00106488 -0.000921458 0)
(-0.00137861 0.00246228 0)
(-0.0017573 0.0085475 0)
(-0.00208313 0.0175344 0)
(-0.00211102 0.027913 0)
(-0.00158684 0.0342794 0)
(-0.000364452 0.0240426 0)
(0.000151394 -0.0172961 0)
(-0.000182316 -0.0249592 0)
(-0.00136542 -0.0209649 0)
(-0.00276206 -0.0143056 0)
(-0.00401251 -0.00866167 0)
(-0.00498023 -0.00490325 0)
(-0.00568106 -0.00279815 0)
(-0.00618766 -0.00185104 0)
(-0.00656938 -0.001624 0)
(-0.00687295 -0.00179826 0)
(-0.00712671 -0.00212134 0)
(-0.00735108 -0.00231025 0)
(-0.0075598 -0.00195561 0)
(-0.00774204 -0.000468225 0)
(-0.00782316 0.00286566 0)
(-0.00763142 0.00863345 0)
(-0.00691914 0.0168329 0)
(-0.00544225 0.0259017 0)
(-0.00322195 0.0309536 0)
(-0.000585994 0.0211802 0)
(-0.000188656 -0.0163268 0)
(-0.00227823 -0.0216971 0)
(-0.00513277 -0.0168252 0)
(-0.00780204 -0.0104964 0)
(-0.0098508 -0.00567076 0)
(-0.0112766 -0.00272867 0)
(-0.012235 -0.00124944 0)
(-0.0128887 -0.000726791 0)
(-0.0133619 -0.000771454 0)
(-0.013739 -0.00111483 0)
(-0.0140715 -0.00154257 0)
(-0.0143794 -0.00181079 0)
(-0.0146399 -0.00157909 0)
(-0.0147612 -0.000386879 0)
(-0.0145358 0.00229501 0)
(-0.0136722 0.00690108 0)
(-0.0118284 0.0133764 0)
(-0.0087993 0.0204413 0)
(-0.00487773 0.0242751 0)
(-0.000821501 0.0165405 0)
(-0.000828999 -0.0124368 0)
(-0.00527424 -0.0143815 0)
(-0.00973666 -0.00958013 0)
(-0.0131428 -0.00480213 0)
(-0.015259 -0.00170341 0)
(-0.0164234 -0.000138652 0)
(-0.0170353 0.000411053 0)
(-0.0173799 0.000383714 0)
(-0.0176301 5.67009e-05 0)
(-0.0178896 -0.000404574 0)
(-0.0182105 -0.000877332 0)
(-0.0185918 -0.00122475 0)
(-0.018965 -0.00125445 0)
(-0.01917 -0.000701098 0)
(-0.0189182 0.000759595 0)
(-0.017792 0.00344377 0)
(-0.0153468 0.00738048 0)
(-0.011343 0.0118455 0)
(-0.00621216 0.0145357 0)
(-0.00104862 0.0102309 0)
(-0.00199258 -0.00425359 0)
(-0.00706594 -0.00372525 0)
(-0.0107026 -0.00172951 0)
(-0.0126234 -0.000319987 0)
(-0.0132645 0.000346946 0)
(-0.01325 0.00053938 0)
(-0.0129955 0.000496572 0)
(-0.0127305 0.000360322 0)
(-0.0125743 0.000192912 0)
(-0.0125789 1.60693e-05 0)
(-0.0127588 -0.000159476 0)
(-0.0130996 -0.00032023 0)
(-0.0135447 -0.000439594 0)
(-0.013969 -0.000467511 0)
(-0.0141487 -0.000318695 0)
(-0.0137498 0.000140609 0)
(-0.0123297 0.001021 0)
(-0.00953243 0.00226935 0)
(-0.0055701 0.00336398 0)
(-0.00132187 0.00283852 0)
)
;

boundaryField
{
    leftWall
    {
        type            fixedValue;
        value           uniform (0 0 0);
    }
    rightWall
    {
        type            fixedValue;
        value           uniform (0 0 0);
    }
    topWall
    {
        type            fixedValue;
        value           uniform (0 0 0);
    }
    bottomWall
    {
        type            fixedValue;
        value           uniform (0 0 0);
    }
    frontAndBackPlanes
    {
        type            empty;
    }
}


// ************************************************************************* //
