/*--------------------------------*- C++ -*----------------------------------*\
| =========                 |                                                 |
| \\      /  F ield         | OpenFOAM: The Open Source CFD Toolbox           |
|  \\    /   O peration     | Version:  2506                                  |
|   \\  /    A nd           | Website:  www.openfoam.com                      |
|    \\/     M anipulation  |                                                 |
\*---------------------------------------------------------------------------*/
FoamFile
{
    version     2.0;
    format      ascii;
    arch        "LSB;label=32;scalar=64";
    class       surfaceScalarField;
    location    "30.6";
    object      phi;
}
// * * * * * * * * * * * * * * * * * * * * * * * * * * * * * * * * * * * * * //

dimensions      [1 0 -1 0 0 0 0];

oriented        oriented;

internalField   nonuniform List<scalar> 
370
(
-5.86109e-05
-4.54837e-05
7.22918e-05
-0.0001309
0.000284459
-0.000212162
0.000561569
-0.000277104
0.000876402
-0.000314826
0.0012032
-0.000326792
0.00152315
-0.000319939
0.00182603
-0.000302881
0.00210988
-0.000283841
0.00237922
-0.000269331
0.00264256
-0.000263343
0.00290918
-0.000266612
0.00318386
-0.000274687
0.00345973
-0.000275865
0.0037047
-0.000244968
0.00383405
-0.000129344
0.00369063
0.000143439
0.00304417
0.000646486
0.00166597
0.00137824
0.001666
9.95067e-05
-0.000144985
0.00040154
-0.000432917
0.000860786
-0.00067138
0.00141932
-0.000835594
0.00202314
-0.000918603
0.00262717
-0.000930756
0.00319931
-0.000892017
0.00372104
-0.000824553
0.00418481
-0.00074755
0.00458972
-0.000674178
0.00493625
-0.000609821
0.00522021
-0.000550519
0.00542608
-0.000480511
0.00551805
-0.000367802
0.00542953
-0.000156418
0.00505875
0.000241469
0.00426744
0.000934793
0.00293037
0.00198362
0.0011934
0.00311529
0.00285945
0.0001813
-0.000326271
0.000626133
-0.000877706
0.00124153
-0.0012867
0.00193836
-0.00153231
0.00264392
-0.00162401
0.00330686
-0.00159352
0.0038972
-0.00148218
0.00440226
-0.00132942
0.00482033
-0.00116544
0.00515397
-0.00100764
0.00540333
-0.000859022
0.00555971
-0.000706762
0.00559933
-0.000520003
0.00547814
-0.000246502
0.00512979
0.000192023
0.00448035
0.000890988
0.00347627
0.00193896
0.00214956
0.00331044
0.000767422
0.00449756
0.00362696
0.000231178
-0.000557422
0.000759775
-0.00140622
0.0014402
-0.00196697
0.00215485
-0.00224671
0.00282055
-0.00228939
0.00339
-0.00216259
0.00384644
-0.00193823
0.00419392
-0.00167651
0.00444664
-0.0014178
0.00461987
-0.00118053
0.00472238
-0.000961223
0.00475014
-0.000734247
0.00468115
-0.000450768
0.00447552
-4.0669e-05
0.00407641
0.000591294
0.00343801
0.00152953
0.00254405
0.00283306
0.00146963
0.00438503
0.000467766
0.00549961
0.00409484
0.000255188
-0.000812564
0.000789064
-0.00193993
0.00141892
-0.00259651
0.00201483
-0.00284214
0.00249908
-0.00277302
0.00284254
-0.00250535
0.00305312
-0.00214813
0.00315943
-0.00178217
0.00319597
-0.00145375
0.0031924
-0.00117643
0.00316613
-0.000934495
0.00311739
-0.000685103
0.00302656
-0.000359582
0.00285359
0.000132592
0.00255511
0.000890016
0.00209372
0.00199114
0.00147133
0.00345566
0.00076899
0.0050876
0.000193115
0.00607571
0.00428807
0.0002282
-0.00104068
0.00064275
-0.0023542
0.00105982
-0.00301302
0.0013694
-0.00315086
0.00152204
-0.00292461
0.00152355
-0.00250576
0.00141458
-0.00203814
0.00124817
-0.00161486
0.00107278
-0.00127759
0.000922334
-0.00102534
0.000812051
-0.000823654
0.000737752
-0.000610311
0.000677873
-0.000299266
0.000599399
0.000211431
0.00047273
0.001017
0.000284863
0.0021793
6.25581e-05
0.00367826
-0.000113444
0.00526393
-0.000133217
0.00609575
0.00415496
0.000110049
-0.0011506
0.00022152
-0.0024652
0.000216968
-0.00300754
5.40059e-05
-0.00298655
-0.000252507
-0.00261652
-0.000653323
-0.00210343
-0.00108429
-0.00160589
-0.00148865
-0.00120948
-0.00182836
-0.000937064
-0.0020858
-0.000767211
-0.00225978
-0.00064905
-0.00235888
-0.00051061
-0.00239415
-0.000263404
-0.00236883
0.000186635
-0.00227266
0.00092132
-0.00208147
0.00198856
-0.00174742
0.00334463
-0.00121654
0.00473344
-0.000525554
0.00540504
0.00362952
-0.000139993
-0.0010104
-0.000546581
-0.00205787
-0.00116304
-0.00238967
-0.00190887
-0.00223879
-0.0026943
-0.00182906
-0.00344077
-0.00135516
-0.00409859
-0.000946628
-0.00464603
-0.000660911
-0.00508222
-0.000499961
-0.00541664
-0.000431963
-0.00565809
-0.000406809
-0.00580436
-0.000363554
-0.00583395
-0.000233051
-0.00570681
6.02066e-05
-0.00535743
0.000572601
-0.00472203
0.00135375
-0.00374289
0.002366
-0.0024218
0.00341276
-0.000955936
0.00393947
0.00267369
-0.000468611
-0.000541493
-0.00147522
-0.00105023
-0.0027015
-0.00116152
-0.00392049
-0.0010174
-0.00498963
-0.000757464
-0.00584953
-0.000493105
-0.00650554
-0.000288875
-0.00699908
-0.000165991
-0.00738122
-0.000116707
-0.00769291
-0.000119306
-0.00795167
-0.000147166
-0.00814385
-0.000170532
-0.00821885
-0.000157235
-0.00808954
-6.82923e-05
-0.0076486
0.000132376
-0.00676826
0.000474041
-0.00535943
0.000957687
-0.00344286
0.00149661
-0.00133178
0.00182869
0.00134203
-0.000541169
-0.00159026
-0.00274972
-0.00376443
-0.00451907
-0.00500956
-0.00529621
-0.00546038
-0.00557563
-0.00569376
-0.00583995
-0.00600966
-0.00616616
-0.00623379
-0.0061008
-0.00562622
-0.00466807
-0.00317109
-0.00134214
)
;

boundaryField
{
    leftWall
    {
        type            calculated;
        value           nonuniform List<scalar> 10(0 0 0 0 0 0 1.69407e-21 0 0 0);
    }
    rightWall
    {
        type            calculated;
        value           nonuniform List<scalar> 10(0 0 0 0 0 0 0 0 0 -4.33681e-19);
    }
    topWall
    {
        type            calculated;
        value           uniform 0;
    }
    bottomWall
    {
        type            calculated;
        value           uniform 0;
    }
    frontAndBackPlanes
    {
        type            empty;
    }
}


// ************************************************************************* //
