/*--------------------------------*- C++ -*----------------------------------*\
| =========                 |                                                 |
| \\      /  F ield         | OpenFOAM: The Open Source CFD Toolbox           |
|  \\    /   O peration     | Version:  2506                                  |
|   \\  /    A nd           | Website:  www.openfoam.com                      |
|    \\/     M anipulation  |                                                 |
\*---------------------------------------------------------------------------*/
FoamFile
{
    version     2.0;
    format      ascii;
    arch        "LSB;label=32;scalar=64";
    class       surfaceScalarField;
    location    "136";
    object      phi;
}
// * * * * * * * * * * * * * * * * * * * * * * * * * * * * * * * * * * * * * //

dimensions      [1 0 -1 0 0 0 0];

oriented        oriented;

internalField   nonuniform List<scalar> 
370
(
0.000370068
-0.000398456
0.00095007
-0.000579952
0.00144536
-0.000495218
0.00177806
-0.000332608
0.00196086
-0.000182701
0.00203982
-7.88533e-05
0.0020646
-2.46623e-05
0.00207539
-1.06659e-05
0.00210045
-2.49263e-05
0.00215871
-5.81209e-05
0.00226133
-0.000102465
0.00241405
-0.000152567
0.00261677
-0.000202559
0.00285774
-0.000240807
0.00310011
-0.000242198
0.00325646
-0.000156182
0.00316216
9.44797e-05
0.00260761
0.000554723
0.00140509
0.00120267
0.00140517
0.0004816
-0.000880029
0.00128083
-0.00137911
0.00203353
-0.00124781
0.0026043
-0.000903265
0.00298164
-0.000559909
0.00320687
-0.000303951
0.00333468
-0.000152339
0.0034145
-9.03437e-05
0.00348295
-9.32349e-05
0.00356206
-0.000137093
0.00366195
-0.000202203
0.00378119
-0.000271656
0.00390446
-0.000325666
0.00399599
-0.000332174
0.00398903
-0.000235073
0.003779
5.40147e-05
0.00323208
0.000641576
0.00222597
0.00156101
0.00089423
0.00253456
0.00229948
0.000449128
-0.00132912
0.00117403
-0.00210393
0.00185454
-0.00192819
0.00237611
-0.00142469
0.00273197
-0.000915617
0.00295797
-0.000529791
0.00309795
-0.000292154
0.00318866
-0.000180896
0.00325527
-0.00015968
0.00331155
-0.000193206
0.00336126
-0.000251753
0.00339827
-0.000308495
0.00340404
-0.000331275
0.00334289
-0.000270849
0.00315819
-5.01999e-05
0.00278057
0.000431806
0.00216016
0.00126217
0.00131257
0.00240877
0.000440008
0.00340727
0.00273955
0.000373016
-0.0017021
0.000934285
-0.00266509
0.00142401
-0.00241777
0.00177231
-0.00177282
0.00199482
-0.00113794
0.00213071
-0.000665499
0.00221492
-0.000376186
0.00227008
-0.000235883
0.00230776
-0.000197179
0.00233206
-0.000217327
0.00234218
-0.000261699
0.00233225
-0.000298393
0.0022885
-0.000287352
0.00218557
-0.00016774
0.00198661
0.00014895
0.0016578
0.000760793
0.0011867
0.00173346
0.000629043
0.00296661
0.000154587
0.00388187
0.0028942
0.000277587
-0.00197965
0.000629718
-0.0030171
0.000877879
-0.00266577
0.00101003
-0.00190479
0.00106754
-0.00119526
0.001091
-0.000688774
0.00110355
-0.000388555
0.00111268
-0.000244832
0.00111787
-0.000202183
0.00111654
-0.000215819
0.00110627
-0.000251252
0.00108328
-0.000275226
0.00103887
-0.00024276
0.000956676
-8.5366e-05
0.000815302
0.000290509
0.000601278
0.000975004
0.000330173
0.00200475
7.32921e-05
0.00322366
-5.18989e-05
0.0040072
0.00284236
0.000160417
-0.00214002
0.000257169
-0.00311373
0.000228092
-0.00263652
0.000129622
-0.00180613
2.20594e-05
-0.00108751
-6.49086e-05
-0.000601623
-0.000126123
-0.000327161
-0.000168612
-0.000202165
-0.000200854
-0.000169764
-0.00022843
-0.000188069
-0.000254535
-0.000224972
-0.000282718
-0.000246868
-0.000319089
-0.000206212
-0.000371607
-3.26677e-05
-0.000440698
0.000359785
-0.000512867
0.00104736
-0.000545642
0.00203771
-0.000470134
0.00314833
-0.000244167
0.00378136
0.00259824
-1.5761e-05
-0.0021242
-0.000238563
-0.0028908
-0.000582281
-0.00229264
-0.000922677
-0.00146556
-0.00119644
-0.000813565
-0.00139426
-0.000403634
-0.00153248
-0.000188772
-0.00163056
-0.000103915
-0.00170305
-9.71054e-05
-0.00175937
-0.000131576
-0.00180533
-0.000178845
-0.00184458
-0.000207446
-0.00187705
-0.000173577
-0.00189409
-1.54525e-05
-0.00186646
0.000332337
-0.00175088
0.000931956
-0.00148815
0.00177515
-0.00103349
0.00269382
-0.000437396
0.00318538
0.00216089
-0.000285957
-0.00183819
-0.000934803
-0.00224182
-0.00163058
-0.00159669
-0.0022021
-0.000893868
-0.00261154
-0.000403953
-0.00288531
-0.000129699
-0.00306448
-9.43049e-06
-0.00318401
1.57753e-05
-0.00327025
-1.07049e-05
-0.00333964
-6.20288e-05
-0.00340054
-0.000117788
-0.00345209
-0.000155742
-0.00348045
-0.000145071
-0.00345154
-4.42071e-05
-0.00331255
0.000193502
-0.00299219
0.000611753
-0.00242391
0.00120702
-0.00159209
0.00186214
-0.000632503
0.00222589
0.00152843
-0.000711941
-0.00112619
-0.00185371
-0.00109991
-0.00281717
-0.000633068
-0.00345514
-0.000255737
-0.00381658
-4.23428e-05
-0.00400462
5.84982e-05
-0.00409651
8.26075e-05
-0.00414653
6.59382e-05
-0.00418817
3.10759e-05
-0.00423955
-1.05069e-05
-0.00430628
-5.09277e-05
-0.00437926
-8.26347e-05
-0.00443137
-9.28343e-05
-0.00441137
-6.4083e-05
-0.00424524
2.74927e-05
-0.00383403
0.000200669
-0.00309515
0.000468243
-0.00201804
0.000785135
-0.000788166
0.000996091
0.000740296
-0.00112612
-0.00222589
-0.0028588
-0.00311437
-0.00315656
-0.00309791
-0.00301516
-0.00294908
-0.00291788
-0.00292826
-0.00297908
-0.0030616
-0.00315434
-0.00321832
-0.00319074
-0.00298998
-0.00252166
-0.00173646
-0.000740318
)
;

boundaryField
{
    leftWall
    {
        type            calculated;
        value           nonuniform List<scalar> 10(0 0 0 1.0842e-19 0 0 0 0 0 0);
    }
    rightWall
    {
        type            calculated;
        value           nonuniform List<scalar> 10(0 0 0 0 0 4.33681e-19 0 0 0 0);
    }
    topWall
    {
        type            calculated;
        value           uniform 0;
    }
    bottomWall
    {
        type            calculated;
        value           uniform 0;
    }
    frontAndBackPlanes
    {
        type            empty;
    }
}


// ************************************************************************* //
