/*--------------------------------*- C++ -*----------------------------------*\
| =========                 |                                                 |
| \\      /  F ield         | OpenFOAM: The Open Source CFD Toolbox           |
|  \\    /   O peration     | Version:  2506                                  |
|   \\  /    A nd           | Website:  www.openfoam.com                      |
|    \\/     M anipulation  |                                                 |
\*---------------------------------------------------------------------------*/
FoamFile
{
    version     2.0;
    format      ascii;
    arch        "LSB;label=32;scalar=64";
    class       volScalarField;
    location    "136";
    object      T;
}
// * * * * * * * * * * * * * * * * * * * * * * * * * * * * * * * * * * * * * //

dimensions      [0 0 0 1 0 0 0];

internalField   nonuniform List<scalar> 
200
(
273.168
273.201
273.224
273.24
273.251
273.259
273.265
273.27
273.275
273.279
273.284
273.289
273.293
273.298
273.305
273.315
273.34
273.401
273.55
273.872
273.179
273.231
273.267
273.288
273.3
273.306
273.309
273.311
273.314
273.316
273.32
273.323
273.327
273.33
273.334
273.34
273.361
273.42
273.574
273.897
273.194
273.272
273.326
273.357
273.372
273.378
273.379
273.378
273.378
273.378
273.379
273.38
273.381
273.38
273.379
273.383
273.401
273.461
273.618
273.928
273.209
273.314
273.386
273.427
273.445
273.451
273.45
273.447
273.444
273.442
273.44
273.438
273.436
273.431
273.426
273.426
273.443
273.507
273.666
273.957
273.224
273.356
273.445
273.493
273.513
273.517
273.514
273.509
273.504
273.5
273.497
273.493
273.487
273.479
273.471
273.469
273.489
273.559
273.719
273.983
273.239
273.397
273.501
273.554
273.573
273.574
273.57
273.564
273.56
273.557
273.553
273.549
273.541
273.531
273.524
273.526
273.552
273.624
273.772
274.005
273.256
273.442
273.556
273.609
273.626
273.627
273.625
273.623
273.622
273.621
273.62
273.617
273.612
273.605
273.602
273.608
273.635
273.702
273.829
274.026
273.279
273.487
273.606
273.659
273.679
273.686
273.69
273.694
273.698
273.702
273.705
273.706
273.706
273.705
273.705
273.713
273.738
273.792
273.893
274.05
273.302
273.528
273.651
273.708
273.734
273.749
273.76
273.769
273.778
273.787
273.795
273.803
273.809
273.816
273.822
273.832
273.853
273.893
273.964
274.076
273.319
273.55
273.672
273.731
273.762
273.78
273.795
273.808
273.821
273.835
273.848
273.862
273.876
273.891
273.906
273.923
273.946
273.978
274.028
274.101
)
;

boundaryField
{
    leftWall
    {
        type            fixedValue;
        value           uniform 273.15;
    }
    rightWall
    {
        type            customNeumannDirichletCoupledBoundary;
        refValue        nonuniform List<scalar> 10(274.131 274.132 274.134 274.136 274.137 274.139 274.141 274.142 274.144 274.145);
        refGradient     uniform 0;
        valueFraction   uniform 1;
        source          uniform 0;
        value           nonuniform List<scalar> 10(274.131 274.132 274.134 274.136 274.137 274.139 274.141 274.142 274.144 274.145);
        kappaMethod     fluidThermo;
    }
    topWall
    {
        type            zeroGradient;
    }
    bottomWall
    {
        type            zeroGradient;
    }
    frontAndBackPlanes
    {
        type            empty;
    }
}


// ************************************************************************* //
