/*--------------------------------*- C++ -*----------------------------------*\
| =========                 |                                                 |
| \\      /  F ield         | OpenFOAM: The Open Source CFD Toolbox           |
|  \\    /   O peration     | Version:  2506                                  |
|   \\  /    A nd           | Website:  www.openfoam.com                      |
|    \\/     M anipulation  |                                                 |
\*---------------------------------------------------------------------------*/
FoamFile
{
    version     2.0;
    format      ascii;
    arch        "LSB;label=32;scalar=64";
    class       surfaceScalarField;
    location    "110";
    object      phi;
}
// * * * * * * * * * * * * * * * * * * * * * * * * * * * * * * * * * * * * * //

dimensions      [1 0 -1 0 0 0 0];

oriented        oriented;

internalField   nonuniform List<scalar> 
370
(
0.000287639
-0.000327017
0.000775902
-0.000488194
0.00120408
-0.000428076
0.00150347
-0.000299273
0.00168097
-0.00017736
0.00177317
-9.20486e-05
0.00182126
-4.79262e-05
0.00185982
-3.83911e-05
0.00191423
-5.4234e-05
0.0020017
-8.72888e-05
0.00213335
-0.000131452
0.00231566
-0.000182116
0.00254946
-0.000233599
0.0028237
-0.000274025
0.00310154
-0.00027763
0.00329472
-0.000192963
0.00322744
6.75073e-05
0.00268519
0.000542465
0.00146097
0.00122442
0.00146107
0.000415732
-0.000742713
0.00111916
-0.00119153
0.00179615
-0.00110493
0.00232441
-0.000827381
0.0026896
-0.000542377
0.0029249
-0.000327167
0.00307676
-0.000199605
0.00318795
-0.000149397
0.00329058
-0.000156667
0.00340491
-0.000201422
0.00354039
-0.000266735
0.00369572
-0.000337242
0.00385589
-0.000393556
0.00398493
-0.000402852
0.00401417
-0.000306653
0.00383536
-1.39338e-05
0.00330852
0.000594573
0.00229597
0.00155524
0.000929311
0.00259127
0.00239048
0.000410837
-0.0011535
0.00108409
-0.00186465
0.00172839
-0.00174905
0.00223495
-0.00133375
0.0025932
-0.000900411
0.00283291
-0.00056666
0.00299273
-0.000359201
0.00310592
-0.000262359
0.0031957
-0.000246233
0.00327511
-0.00028061
0.00334782
-0.000339221
0.0034079
-0.000397097
0.00343697
-0.0004224
0.00339889
-0.000364538
0.00323535
-0.000142882
0.00286886
0.000352803
0.00224592
0.00121775
0.00137628
0.0024251
0.00046675
0.00350099
0.00285732
0.00035963
-0.00151308
0.000913072
-0.00241795
0.00140885
-0.00224462
0.00177336
-0.00169802
0.00201588
-0.00114269
0.00217085
-0.000721381
0.00227098
-0.000459088
0.00233872
-0.000329857
0.00238639
-0.000293658
0.00241906
-0.000313032
0.00243673
-0.000356656
0.00243416
-0.000394277
0.00239779
-0.000385791
0.00230146
-0.000267961
0.00210557
5.32658e-05
0.00177095
0.000687668
0.00128168
0.00170728
0.000691639
0.00301539
0.000177598
0.00401523
0.003035
0.000284216
-0.00179724
0.00066311
-0.00279668
0.000948542
-0.00252983
0.00111717
-0.0018664
0.00120333
-0.00122858
0.00124518
-0.000762974
0.00126688
-0.000480526
0.00127858
-0.000341308
0.00128236
-0.000297185
0.0012775
-0.000307926
0.00126273
-0.000341635
0.00123496
-0.000366257
0.00118567
-0.000336256
0.00109765
-0.000179679
0.000946339
0.000204832
0.00071615
0.000918118
0.000418796
0.00200489
0.000126267
0.00330816
-3.40078e-05
0.0041757
0.00300107
0.000180984
-0.00197816
0.000326628
-0.00294215
0.000350183
-0.00255315
0.000292659
-0.00180861
0.000209773
-0.00114543
0.000133691
-0.000686633
7.33361e-05
-0.000419917
2.5519e-05
-0.000293241
-1.55035e-05
-0.000255915
-5.36025e-05
-0.000269581
-9.09626e-05
-0.000304029
-0.000130735
-0.000326238
-0.000179403
-0.000287338
-0.000245866
-0.00011296
-0.000333335
0.000292564
-0.00042889
0.00101394
-0.000489767
0.00206603
-0.000443471
0.0032621
-0.000239703
0.00397211
0.00276144
1.3282e-05
-0.00199137
-0.000154624
-0.00277406
-0.000447509
-0.00226002
-0.000755372
-0.00150049
-0.00101533
-0.000885219
-0.00121317
-0.000488549
-0.00135931
-0.000273535
-0.00146965
-0.000182654
-0.00155685
-0.000168474
-0.00162894
-0.000197261
-0.00169108
-0.000241651
-0.00174713
-0.000269948
-0.00179803
-0.000236196
-0.00183584
-7.49056e-05
-0.00183223
0.000289207
-0.00174034
0.000922306
-0.00149653
0.00182246
-0.00105068
0.00281648
-0.000449687
0.00337128
0.00231182
-0.00025371
-0.00173758
-0.000852391
-0.00217519
-0.00151182
-0.00160035
-0.00206871
-0.000943359
-0.00248127
-0.000472413
-0.00276878
-0.000200803
-0.00296747
-7.46123e-05
-0.00310949
-4.04039e-05
-0.00321865
-5.90835e-05
-0.00331075
-0.000104946
-0.00339403
-0.000158145
-0.0034682
-0.000195561
-0.00351987
-0.000184304
-0.00351522
-7.9332e-05
-0.00339695
0.000171155
-0.00308905
0.000614628
-0.00251849
0.00125211
-0.00166464
0.00196282
-0.000665786
0.00237256
0.00164609
-0.00067164
-0.00106585
-0.00176978
-0.00107685
-0.00272044
-0.000649453
-0.00337265
-0.000290915
-0.00376568
-7.9139e-05
-0.00398504
1.87796e-05
-0.00411107
5.16386e-05
-0.0041925
4.12393e-05
-0.00426184
1.04609e-05
-0.00433948
-2.7117e-05
-0.0044309
-6.65292e-05
-0.00452815
-9.81323e-05
-0.00460382
-0.000108451
-0.00460446
-7.85109e-05
-0.00445185
1.87156e-05
-0.00403905
0.000201992
-0.0032758
0.000489023
-0.0021462
0.000833373
-0.000842697
0.00106916
0.000803443
-0.00106576
-0.00214241
-0.00279163
-0.00308231
-0.00316122
-0.00314222
-0.00309038
-0.00304895
-0.00303831
-0.00306525
-0.00313162
-0.00322959
-0.0033379
-0.00341628
-0.00339743
-0.00319532
-0.00270618
-0.00187271
-0.000803475
)
;

boundaryField
{
    leftWall
    {
        type            calculated;
        value           nonuniform List<scalar> 10(0 0 5.42101e-20 0 0 0 0 0 0 0);
    }
    rightWall
    {
        type            calculated;
        value           uniform 0;
    }
    topWall
    {
        type            calculated;
        value           uniform 0;
    }
    bottomWall
    {
        type            calculated;
        value           uniform 0;
    }
    frontAndBackPlanes
    {
        type            empty;
    }
}


// ************************************************************************* //
