/*--------------------------------*- C++ -*----------------------------------*\
| =========                 |                                                 |
| \\      /  F ield         | OpenFOAM: The Open Source CFD Toolbox           |
|  \\    /   O peration     | Version:  2506                                  |
|   \\  /    A nd           | Website:  www.openfoam.com                      |
|    \\/     M anipulation  |                                                 |
\*---------------------------------------------------------------------------*/
FoamFile
{
    version     2.0;
    format      ascii;
    arch        "LSB;label=32;scalar=64";
    class       volVectorField;
    location    "93";
    object      U;
}
// * * * * * * * * * * * * * * * * * * * * * * * * * * * * * * * * * * * * * //

dimensions      [0 1 -1 0 0 0 0];

internalField   nonuniform List<vector> 
200
(
(0.000288647 -0.000888663 0)
(0.00174954 -0.00117038 0)
(0.00342409 -0.000897876 0)
(0.00483479 -0.000531273 0)
(0.00577641 -0.000241576 0)
(0.00634356 -7.31669e-05 0)
(0.00668571 -1.815e-05 0)
(0.00694324 -4.98254e-05 0)
(0.0072269 -0.000141794 0)
(0.00761686 -0.000276568 0)
(0.00816955 -0.000447101 0)
(0.00892459 -0.000653108 0)
(0.00990525 -0.00089177 0)
(0.011104 -0.0011405 0)
(0.0124386 -0.00132682 0)
(0.0136514 -0.00127474 0)
(0.0141558 -0.000618936 0)
(0.0130367 0.00120025 0)
(0.00935679 0.00428203 0)
(0.00282644 0.00599278 0)
(0.000417959 -0.00369225 0)
(0.00276288 -0.00593628 0)
(0.00542125 -0.00553946 0)
(0.00779263 -0.00419402 0)
(0.00957989 -0.00280684 0)
(0.0108162 -0.00177847 0)
(0.011661 -0.00120991 0)
(0.0122866 -0.0010559 0)
(0.0128349 -0.00122097 0)
(0.0134048 -0.00160996 0)
(0.014054 -0.00214488 0)
(0.0148003 -0.00275478 0)
(0.015615 -0.00333978 0)
(0.0163994 -0.00370666 0)
(0.0169436 -0.00347528 0)
(0.0168716 -0.00197265 0)
(0.0155798 0.00178439 0)
(0.0123844 0.00853644 0)
(0.00722854 0.0167823 0)
(0.00123815 0.0171964 0)
(0.000439349 -0.00683361 0)
(0.00286175 -0.0113291 0)
(0.00552119 -0.0109191 0)
(0.00788444 -0.00860981 0)
(0.00967833 -0.0060889 0)
(0.0109374 -0.0041108 0)
(0.0118062 -0.00288491 0)
(0.0124316 -0.0023509 0)
(0.012926 -0.00234652 0)
(0.0133605 -0.00269521 0)
(0.0137681 -0.00323544 0)
(0.0141458 -0.00380441 0)
(0.0144471 -0.00418136 0)
(0.0145629 -0.0039958 0)
(0.0142934 -0.00262135 0)
(0.0133116 0.000873715 0)
(0.0112821 0.00743674 0)
(0.00804091 0.017161 0)
(0.00401465 0.0267208 0)
(0.000473046 0.0232237 0)
(0.00041532 -0.00990785 0)
(0.00259334 -0.0163685 0)
(0.0048245 -0.0157397 0)
(0.00669057 -0.012423 0)
(0.00801991 -0.00883197 0)
(0.00889678 -0.00600369 0)
(0.00946805 -0.0041971 0)
(0.00985363 -0.00330273 0)
(0.010128 -0.00308284 0)
(0.0103287 -0.00329032 0)
(0.0104687 -0.00370289 0)
(0.0105407 -0.0040941 0)
(0.0105105 -0.00415449 0)
(0.0102983 -0.0033821 0)
(0.00975945 -0.00099423 0)
(0.00867358 0.00401134 0)
(0.00690399 0.0123876 0)
(0.00446216 0.0236055 0)
(0.00183066 0.0329672 0)
(9.31033e-05 0.0260355 0)
(0.000370029 -0.0126041 0)
(0.00209211 -0.0204184 0)
(0.00360966 -0.0192652 0)
(0.00469325 -0.0149315 0)
(0.00532544 -0.0104445 0)
(0.00565256 -0.00700052 0)
(0.00581562 -0.00481873 0)
(0.00589645 -0.00369786 0)
(0.00592729 -0.00332307 0)
(0.00591595 -0.00340157 0)
(0.00586305 -0.00368585 0)
(0.00576473 -0.00392081 0)
(0.00560198 -0.00373982 0)
(0.00532222 -0.00254402 0)
(0.00481721 0.000552077 0)
(0.00398388 0.0065228 0)
(0.00278402 0.0159155 0)
(0.00135659 0.027626 0)
(0.000117838 0.0361118 0)
(-0.000168661 0.0267691 0)
(0.000293519 -0.0146954 0)
(0.00131154 -0.0230111 0)
(0.001827 -0.0210185 0)
(0.00189609 -0.0157736 0)
(0.00169379 -0.0107 0)
(0.00140536 -0.00697722 0)
(0.00113037 -0.00469137 0)
(0.000892011 -0.00352881 0)
(0.000679196 -0.00311967 0)
(0.000478062 -0.00316008 0)
(0.000281481 -0.00340422 0)
(8.22448e-05 -0.00358205 0)
(-0.00013989 -0.00327985 0)
(-0.000421771 -0.00183128 0)
(-0.000813516 0.00168136 0)
(-0.00129274 0.00812955 0)
(-0.00174126 0.0177734 0)
(-0.00190903 0.0290491 0)
(-0.00151916 0.0362229 0)
(-0.00036672 0.0257386 0)
(0.000162527 -0.0157806 0)
(6.8603e-05 -0.0234785 0)
(-0.000804578 -0.0204065 0)
(-0.00197874 -0.0145648 0)
(-0.0031132 -0.00940397 0)
(-0.00405353 -0.00584745 0)
(-0.00478523 -0.0037722 0)
(-0.00535514 -0.0027742 0)
(-0.00581558 -0.00247485 0)
(-0.00620344 -0.00258919 0)
(-0.00654233 -0.00288028 0)
(-0.00685207 -0.00306521 0)
(-0.00715038 -0.00271399 0)
(-0.00743298 -0.00118518 0)
(-0.00763182 0.00231919 0)
(-0.00755975 0.00847365 0)
(-0.00694847 0.0173236 0)
(-0.00553138 0.0272399 0)
(-0.00331475 0.0329967 0)
(-0.000612529 0.0228455 0)
(-0.00014548 -0.0151211 0)
(-0.00197745 -0.0207623 0)
(-0.00459606 -0.0167268 0)
(-0.00713372 -0.0110096 0)
(-0.00916153 -0.00647441 0)
(-0.0106434 -0.00360218 0)
(-0.0117002 -0.00207575 0)
(-0.012472 -0.00146303 0)
(-0.0130691 -0.00141921 0)
(-0.0135691 -0.00169851 0)
(-0.0140214 -0.00209387 0)
(-0.0144478 -0.00235262 0)
(-0.0148293 -0.00210839 0)
(-0.0150753 -0.000854452 0)
(-0.0149709 0.00199928 0)
(-0.014191 0.00694276 0)
(-0.0123645 0.0139595 0)
(-0.00925921 0.0217131 0)
(-0.0051697 0.0260943 0)
(-0.000880283 0.0179737 0)
(-0.000756649 -0.0115955 0)
(-0.00491782 -0.0139382 0)
(-0.009234 -0.00977155 0)
(-0.0126552 -0.00535726 0)
(-0.0149034 -0.00236478 0)
(-0.0162475 -0.00076083 0)
(-0.0170418 -0.000118143 0)
(-0.0175581 -4.98909e-05 0)
(-0.0179644 -0.000301183 0)
(-0.0183662 -0.000714208 0)
(-0.0188213 -0.00116488 0)
(-0.0193321 -0.00150708 0)
(-0.0198325 -0.0015296 0)
(-0.020157 -0.000938568 0)
(-0.0200013 0.000625446 0)
(-0.0189055 0.00351526 0)
(-0.016386 0.00779278 0)
(-0.0121709 0.0127031 0)
(-0.00670437 0.0157574 0)
(-0.00114174 0.0112049 0)
(-0.00184557 -0.00394791 0)
(-0.0066521 -0.00362698 0)
(-0.0102755 -0.00183583 0)
(-0.0123481 -0.000504821 0)
(-0.0131979 0.000167108 0)
(-0.0133916 0.000401078 0)
(-0.0133223 0.000399307 0)
(-0.0132059 0.000293021 0)
(-0.0131658 0.000144219 0)
(-0.0132635 -2.39198e-05 0)
(-0.0135239 -0.000198018 0)
(-0.013944 -0.000363464 0)
(-0.014471 -0.000490697 0)
(-0.0149764 -0.000524095 0)
(-0.0152205 -0.000369269 0)
(-0.0148453 0.00012249 0)
(-0.013367 0.00108212 0)
(-0.0103833 0.00246075 0)
(-0.00610343 0.00368953 0)
(-0.00146122 0.00314079 0)
)
;

boundaryField
{
    leftWall
    {
        type            fixedValue;
        value           uniform (0 0 0);
    }
    rightWall
    {
        type            fixedValue;
        value           uniform (0 0 0);
    }
    topWall
    {
        type            fixedValue;
        value           uniform (0 0 0);
    }
    bottomWall
    {
        type            fixedValue;
        value           uniform (0 0 0);
    }
    frontAndBackPlanes
    {
        type            empty;
    }
}


// ************************************************************************* //
