/*--------------------------------*- C++ -*----------------------------------*\
| =========                 |                                                 |
| \\      /  F ield         | OpenFOAM: The Open Source CFD Toolbox           |
|  \\    /   O peration     | Version:  2506                                  |
|   \\  /    A nd           | Website:  www.openfoam.com                      |
|    \\/     M anipulation  |                                                 |
\*---------------------------------------------------------------------------*/
FoamFile
{
    version     2.0;
    format      ascii;
    arch        "LSB;label=32;scalar=64";
    class       volScalarField;
    location    "33";
    object      T;
}
// * * * * * * * * * * * * * * * * * * * * * * * * * * * * * * * * * * * * * //

dimensions      [0 0 0 1 0 0 0];

internalField   nonuniform List<scalar> 
200
(
273.15
273.149
273.148
273.147
273.147
273.146
273.146
273.146
273.145
273.145
273.145
273.145
273.146
273.147
273.149
273.157
273.179
273.241
273.406
273.792
273.15
273.149
273.148
273.148
273.147
273.147
273.147
273.146
273.146
273.146
273.146
273.145
273.145
273.146
273.147
273.152
273.171
273.233
273.407
273.81
273.15
273.149
273.149
273.149
273.149
273.15
273.15
273.15
273.15
273.15
273.149
273.148
273.147
273.146
273.147
273.152
273.173
273.241
273.429
273.835
273.15
273.15
273.151
273.153
273.155
273.158
273.16
273.161
273.162
273.161
273.16
273.157
273.154
273.151
273.15
273.155
273.179
273.257
273.458
273.86
273.15
273.152
273.156
273.162
273.169
273.176
273.181
273.184
273.185
273.183
273.18
273.175
273.168
273.162
273.158
273.164
273.195
273.284
273.496
273.887
273.151
273.156
273.165
273.179
273.195
273.208
273.217
273.222
273.223
273.22
273.214
273.205
273.193
273.182
273.179
273.188
273.228
273.332
273.55
273.915
273.153
273.162
273.181
273.207
273.235
273.257
273.271
273.277
273.278
273.274
273.267
273.257
273.247
273.239
273.241
273.259
273.307
273.413
273.616
273.941
273.155
273.173
273.206
273.249
273.29
273.322
273.342
273.354
273.361
273.364
273.365
273.364
273.362
273.361
273.367
273.388
273.435
273.529
273.7
273.972
273.158
273.185
273.233
273.293
273.35
273.396
273.431
273.457
273.478
273.494
273.508
273.52
273.53
273.539
273.549
273.569
273.607
273.679
273.805
274.01
273.158
273.187
273.238
273.303
273.368
273.427
273.477
273.519
273.555
273.586
273.614
273.64
273.665
273.688
273.712
273.739
273.775
273.83
273.916
274.052
)
;

boundaryField
{
    leftWall
    {
        type            fixedValue;
        value           uniform 273.15;
    }
    rightWall
    {
        type            customNeumannDirichletCoupledBoundary;
        refValue        nonuniform List<scalar> 10(274.125 274.126 274.127 274.129 274.131 274.133 274.135 274.137 274.139 274.141);
        refGradient     uniform 0;
        valueFraction   uniform 1;
        source          uniform 0;
        value           nonuniform List<scalar> 10(274.125 274.126 274.127 274.129 274.131 274.133 274.135 274.137 274.139 274.141);
        kappaMethod     fluidThermo;
    }
    topWall
    {
        type            zeroGradient;
    }
    bottomWall
    {
        type            zeroGradient;
    }
    frontAndBackPlanes
    {
        type            empty;
    }
}


// ************************************************************************* //
