/*--------------------------------*- C++ -*----------------------------------*\
| =========                 |                                                 |
| \\      /  F ield         | OpenFOAM: The Open Source CFD Toolbox           |
|  \\    /   O peration     | Version:  2506                                  |
|   \\  /    A nd           | Website:  www.openfoam.com                      |
|    \\/     M anipulation  |                                                 |
\*---------------------------------------------------------------------------*/
FoamFile
{
    version     2.0;
    format      ascii;
    arch        "LSB;label=32;scalar=64";
    class       volScalarField;
    location    "90";
    object      T;
}
// * * * * * * * * * * * * * * * * * * * * * * * * * * * * * * * * * * * * * //

dimensions      [0 0 0 1 0 0 0];

internalField   nonuniform List<scalar> 
200
(
273.159
273.175
273.187
273.195
273.201
273.204
273.206
273.208
273.209
273.211
273.213
273.215
273.218
273.221
273.225
273.234
273.257
273.32
273.478
273.833
273.166
273.196
273.217
273.229
273.236
273.24
273.241
273.242
273.243
273.244
273.246
273.248
273.249
273.251
273.252
273.257
273.277
273.337
273.502
273.861
273.177
273.226
273.261
273.282
273.292
273.296
273.297
273.296
273.296
273.295
273.296
273.296
273.295
273.294
273.292
273.294
273.311
273.375
273.546
273.894
273.189
273.26
273.31
273.339
273.353
273.358
273.358
273.356
273.353
273.351
273.35
273.348
273.344
273.338
273.332
273.331
273.349
273.418
273.594
273.926
273.202
273.295
273.361
273.398
273.415
273.419
273.417
273.414
273.41
273.407
273.404
273.399
273.393
273.383
273.374
273.371
273.392
273.468
273.646
273.954
273.215
273.332
273.413
273.456
273.474
273.477
273.474
273.47
273.467
273.464
273.461
273.456
273.447
273.435
273.425
273.426
273.454
273.535
273.704
273.978
273.23
273.372
273.466
273.513
273.53
273.534
273.533
273.532
273.532
273.532
273.531
273.527
273.521
273.512
273.507
273.513
273.543
273.619
273.767
274.001
273.249
273.415
273.517
273.566
273.587
273.596
273.602
273.608
273.613
273.619
273.622
273.624
273.624
273.622
273.622
273.631
273.658
273.721
273.84
274.028
273.27
273.454
273.562
273.617
273.646
273.663
273.677
273.69
273.702
273.713
273.724
273.733
273.742
273.749
273.757
273.768
273.792
273.838
273.923
274.059
273.284
273.475
273.584
273.643
273.677
273.7
273.718
273.736
273.753
273.77
273.787
273.804
273.821
273.839
273.858
273.878
273.904
273.942
274
274.089
)
;

boundaryField
{
    leftWall
    {
        type            fixedValue;
        value           uniform 273.15;
    }
    rightWall
    {
        type            customNeumannDirichletCoupledBoundary;
        refValue        nonuniform List<scalar> 10(274.128 274.129 274.131 274.133 274.135 274.137 274.139 274.141 274.142 274.144);
        refGradient     uniform 0;
        valueFraction   uniform 1;
        source          uniform 0;
        value           nonuniform List<scalar> 10(274.128 274.129 274.131 274.133 274.135 274.137 274.139 274.141 274.142 274.144);
        kappaMethod     fluidThermo;
    }
    topWall
    {
        type            zeroGradient;
    }
    bottomWall
    {
        type            zeroGradient;
    }
    frontAndBackPlanes
    {
        type            empty;
    }
}


// ************************************************************************* //
