/*--------------------------------*- C++ -*----------------------------------*\
| =========                 |                                                 |
| \\      /  F ield         | OpenFOAM: The Open Source CFD Toolbox           |
|  \\    /   O peration     | Version:  2506                                  |
|   \\  /    A nd           | Website:  www.openfoam.com                      |
|    \\/     M anipulation  |                                                 |
\*---------------------------------------------------------------------------*/
FoamFile
{
    version     2.0;
    format      ascii;
    arch        "LSB;label=32;scalar=64";
    class       volScalarField;
    location    "133";
    object      T;
}
// * * * * * * * * * * * * * * * * * * * * * * * * * * * * * * * * * * * * * //

dimensions      [0 0 0 1 0 0 0];

internalField   nonuniform List<scalar> 
200
(
273.168
273.199
273.222
273.238
273.249
273.256
273.262
273.267
273.271
273.276
273.28
273.285
273.289
273.294
273.3
273.311
273.335
273.396
273.546
273.87
273.179
273.229
273.264
273.285
273.297
273.303
273.306
273.308
273.31
273.313
273.316
273.32
273.323
273.326
273.329
273.336
273.356
273.416
273.57
273.895
273.193
273.27
273.323
273.353
273.368
273.374
273.375
273.374
273.374
273.374
273.375
273.376
273.376
273.376
273.375
273.378
273.396
273.457
273.614
273.926
273.208
273.312
273.383
273.423
273.441
273.446
273.446
273.443
273.44
273.438
273.436
273.434
273.431
273.426
273.422
273.421
273.438
273.502
273.663
273.956
273.223
273.353
273.441
273.488
273.508
273.512
273.509
273.504
273.499
273.496
273.492
273.488
273.482
273.474
273.466
273.465
273.484
273.554
273.715
273.982
273.238
273.394
273.497
273.549
273.568
273.57
273.565
273.559
273.555
273.552
273.549
273.544
273.536
273.527
273.519
273.521
273.547
273.62
273.769
274.003
273.255
273.439
273.552
273.604
273.621
273.623
273.62
273.618
273.618
273.617
273.616
273.613
273.607
273.601
273.597
273.603
273.631
273.698
273.826
274.025
273.277
273.484
273.602
273.655
273.675
273.682
273.686
273.69
273.694
273.698
273.701
273.702
273.702
273.701
273.701
273.709
273.734
273.789
273.89
274.049
273.301
273.525
273.647
273.703
273.73
273.745
273.756
273.765
273.774
273.783
273.792
273.799
273.806
273.813
273.819
273.829
273.85
273.89
273.962
274.076
273.318
273.546
273.668
273.727
273.758
273.777
273.791
273.805
273.818
273.831
273.845
273.859
273.873
273.888
273.904
273.921
273.944
273.977
274.027
274.1
)
;

boundaryField
{
    leftWall
    {
        type            fixedValue;
        value           uniform 273.15;
    }
    rightWall
    {
        type            customNeumannDirichletCoupledBoundary;
        refValue        nonuniform List<scalar> 10(274.131 274.132 274.134 274.136 274.137 274.139 274.141 274.142 274.144 274.145);
        refGradient     uniform 0;
        valueFraction   uniform 1;
        source          uniform 0;
        value           nonuniform List<scalar> 10(274.131 274.132 274.134 274.136 274.137 274.139 274.141 274.142 274.144 274.145);
        kappaMethod     fluidThermo;
    }
    topWall
    {
        type            zeroGradient;
    }
    bottomWall
    {
        type            zeroGradient;
    }
    frontAndBackPlanes
    {
        type            empty;
    }
}


// ************************************************************************* //
