/*--------------------------------*- C++ -*----------------------------------*\
| =========                 |                                                 |
| \\      /  F ield         | OpenFOAM: The Open Source CFD Toolbox           |
|  \\    /   O peration     | Version:  2506                                  |
|   \\  /    A nd           | Website:  www.openfoam.com                      |
|    \\/     M anipulation  |                                                 |
\*---------------------------------------------------------------------------*/
FoamFile
{
    version     2.0;
    format      ascii;
    arch        "LSB;label=32;scalar=64";
    class       surfaceScalarField;
    location    "62.4";
    object      phi;
}
// * * * * * * * * * * * * * * * * * * * * * * * * * * * * * * * * * * * * * //

dimensions      [1 0 -1 0 0 0 0];

oriented        oriented;

internalField   nonuniform List<scalar> 
370
(
7.31411e-05
-0.000143907
0.000324085
-0.000250878
0.000585178
-0.000260995
0.000813548
-0.000228252
0.00099811
-0.00018443
0.00114675
-0.000148499
0.00127551
-0.000128612
0.00140205
-0.000126392
0.00154282
-0.000140618
0.00171229
-0.000169314
0.00192284
-0.00021038
0.00218381
-0.000260805
0.00249796
-0.000313968
0.0028536
-0.000355455
0.00320994
-0.000356147
0.00347181
-0.000261683
0.00344134
3.06645e-05
0.00289707
0.000544465
0.00159867
0.00129858
0.00159877
0.000227199
-0.000371064
0.000662405
-0.000685968
0.00113537
-0.000733791
0.00156182
-0.000654497
0.00191721
-0.000539609
0.00220796
-0.000439023
0.00245341
-0.000373846
0.00267565
-0.000348398
0.00289415
-0.000358894
0.00312345
-0.000398383
0.00337152
-0.00045822
0.00363719
-0.000526224
0.00390488
-0.000581414
0.00413511
-0.000585427
0.00425097
-0.000471744
0.00412783
-0.000138281
0.00361737
0.000541384
0.00254485
0.00161723
0.00104645
0.0027972
0.00264533
0.000286775
-0.000657772
0.000795271
-0.00119428
0.00132725
-0.00126551
0.00179338
-0.00112032
0.00217094
-0.000916835
0.00246937
-0.000737116
0.00270917
-0.000613316
0.002911
-0.000549899
0.00309096
-0.00053852
0.00325897
-0.000566069
0.003418
-0.000616908
0.00356202
-0.000669905
0.00367157
-0.000690623
0.00370643
-0.000619932
0.00359855
-0.000363515
0.00325479
0.000205826
0.00259719
0.00119932
0.00162774
0.00258699
0.0005726
0.00385261
0.00321806
0.000301174
-0.000958857
0.000805723
-0.00169858
0.00130101
-0.00176045
0.00170598
-0.00152488
0.00201021
-0.00122063
0.00223172
-0.0009582
0.00239413
-0.000775294
0.0025169
-0.000672248
0.00261297
-0.00063417
0.00268935
-0.000642031
0.00274795
-0.00067509
0.00278469
-0.000706222
0.00278584
-0.000691345
0.0027221
-0.000555766
0.00254484
-0.000185821
0.00219449
0.000556608
0.00163996
0.00175425
0.000931124
0.0032962
0.000270551
0.00451348
0.00348875
0.000283766
-0.00124251
0.000714806
-0.00212932
0.00109327
-0.00213849
0.00136297
-0.00179411
0.00153419
-0.00139136
0.00163549
-0.001059
0.00169224
-0.000831554
0.00172101
-0.000700532
0.00173096
-0.000643646
0.00172689
-0.000637494
0.00171098
-0.000658701
0.00168191
-0.000676671
0.00163156
-0.000640506
0.00154068
-0.000464393
0.00137675
-2.13902e-05
0.00110632
0.000827525
0.000730131
0.00213091
0.000321049
0.0037057
3.55258e-05
0.00479933
0.00352442
0.000224006
-0.0014664
0.000496519
-0.0024015
0.000669661
-0.00231116
0.000733658
-0.00185759
0.000725552
-0.00138272
0.000680541
-0.00101346
0.000619839
-0.000770333
0.000553134
-0.000633318
0.000484338
-0.000574345
0.000415506
-0.000568159
0.000347481
-0.000590169
0.000277949
-0.000606625
0.000199056
-0.00056109
9.78756e-05
-0.000362675
-3.60326e-05
0.000113073
-0.000189641
0.000981676
-0.000322307
0.00226408
-0.00035521
0.00373906
-0.000218143
0.0046626
0.00330641
9.33959e-05
-0.00155965
8.36432e-05
-0.00239138
-5.68192e-05
-0.00217019
-0.000267109
-0.00164675
-0.00049102
-0.00115826
-0.000699301
-0.000804649
-0.000883751
-0.000585362
-0.00104594
-0.000470619
-0.00118964
-0.00043013
-0.00131829
-0.000439002
-0.0014355
-0.000472451
-0.00154594
-0.000495667
-0.00165337
-0.000453139
-0.00175294
-0.000262573
-0.00181569
0.000176374
-0.00178024
0.000946752
-0.00156959
0.00205394
-0.00112459
0.00329449
-0.000491074
0.00402941
0.00281546
-0.000156231
-0.00140326
-0.000595034
-0.00195217
-0.0011426
-0.00162211
-0.00166203
-0.00112678
-0.00209894
-0.000720816
-0.00244928
-0.000453785
-0.00272936
-0.000304775
-0.00295917
-0.000240315
-0.00315589
-0.000232923
-0.00333249
-0.000261909
-0.00349735
-0.000307114
-0.00365142
-0.000341118
-0.00378152
-0.000322553
-0.00385004
-0.000193566
-0.00378677
0.000113583
-0.00349556
0.000656024
-0.00288524
0.00144407
-0.00192728
0.00233693
-0.000779013
0.00288143
0.00203657
-0.000539703
-0.000863378
-0.00149383
-0.000997617
-0.00240578
-0.000709648
-0.00311359
-0.00041844
-0.00361615
-0.000217744
-0.00396432
-0.000105123
-0.00421367
-5.49605e-05
-0.00440935
-4.41734e-05
-0.00458376
-5.80723e-05
-0.00475781
-8.743e-05
-0.00494092
-0.000123596
-0.00512659
-0.000155035
-0.00528426
-0.000164487
-0.00535021
-0.000127226
-0.00522975
-6.49202e-06
-0.00478975
0.000216405
-0.00391778
0.000572464
-0.00258809
0.00100755
-0.00102518
0.00131876
0.0010115
-0.000863183
-0.00186037
-0.00256951
-0.00298745
-0.00320471
-0.00330938
-0.00336391
-0.00340768
-0.00346536
-0.00355243
-0.00367567
-0.00383037
-0.00399454
-0.00412147
-0.00412768
-0.003911
-0.00333828
-0.0023305
-0.00101157
)
;

boundaryField
{
    leftWall
    {
        type            calculated;
        value           nonuniform List<scalar> 10(8.47033e-22 0 0 0 0 0 0 0 0 0);
    }
    rightWall
    {
        type            calculated;
        value           nonuniform List<scalar> 10(0 0 0 0 0 0 0 0 4.33681e-19 0);
    }
    topWall
    {
        type            calculated;
        value           uniform 0;
    }
    bottomWall
    {
        type            calculated;
        value           uniform 0;
    }
    frontAndBackPlanes
    {
        type            empty;
    }
}


// ************************************************************************* //
