/*--------------------------------*- C++ -*----------------------------------*\
| =========                 |                                                 |
| \\      /  F ield         | OpenFOAM: The Open Source CFD Toolbox           |
|  \\    /   O peration     | Version:  2506                                  |
|   \\  /    A nd           | Website:  www.openfoam.com                      |
|    \\/     M anipulation  |                                                 |
\*---------------------------------------------------------------------------*/
FoamFile
{
    version     2.0;
    format      ascii;
    arch        "LSB;label=32;scalar=64";
    class       volScalarField;
    location    "121.4";
    object      p;
}
// * * * * * * * * * * * * * * * * * * * * * * * * * * * * * * * * * * * * * //

dimensions      [1 -1 -2 0 0 0 0];

internalField   nonuniform List<scalar> 
200
(
100000
100000
100000
99999.9
99999.9
99999.8
99999.8
99999.7
99999.7
99999.6
99999.6
99999.5
99999.5
99999.4
99999.4
99999.3
99999.1
99999
99998.8
99998.7
99733.5
99733.5
99733.5
99733.5
99733.5
99733.4
99733.4
99733.4
99733.3
99733.3
99733.3
99733.3
99733.2
99733.2
99733.2
99733.1
99733.1
99733
99733
99733
99467.3
99467.3
99467.3
99467.2
99467.2
99467.2
99467.2
99467.1
99467.1
99467.1
99467.1
99467.1
99467.1
99467.1
99467
99467
99467
99467
99467
99467.1
99201.2
99201.2
99201.2
99201.2
99201.1
99201.1
99201.1
99201.1
99201.1
99201.1
99201.1
99201.1
99201.1
99201.1
99201
99201
99201
99201
99201.1
99201.1
98935.3
98935.3
98935.3
98935.3
98935.2
98935.2
98935.2
98935.2
98935.2
98935.2
98935.2
98935.2
98935.2
98935.2
98935.2
98935.2
98935.2
98935.2
98935.2
98935.2
98669.6
98669.6
98669.5
98669.5
98669.5
98669.5
98669.5
98669.5
98669.5
98669.5
98669.5
98669.5
98669.5
98669.5
98669.5
98669.5
98669.5
98669.5
98669.5
98669.5
98404
98404
98404
98403.9
98403.9
98403.9
98403.9
98403.9
98403.9
98403.9
98403.9
98403.9
98403.9
98403.9
98403.9
98403.9
98404
98404
98404
98404
98138.6
98138.5
98138.5
98138.5
98138.5
98138.5
98138.5
98138.5
98138.6
98138.6
98138.6
98138.6
98138.6
98138.6
98138.6
98138.7
98138.7
98138.7
98138.8
98138.8
97873.2
97873.2
97873.2
97873.2
97873.2
97873.3
97873.3
97873.4
97873.4
97873.4
97873.5
97873.5
97873.5
97873.6
97873.6
97873.7
97873.8
97873.8
97873.9
97873.9
97607.6
97607.7
97607.8
97607.9
97608
97608.1
97608.2
97608.3
97608.4
97608.5
97608.5
97608.6
97608.7
97608.8
97608.9
97609
97609.1
97609.2
97609.3
97609.3
)
;

boundaryField
{
    leftWall
    {
        type            zeroGradient;
    }
    rightWall
    {
        type            zeroGradient;
    }
    topWall
    {
        type            zeroGradient;
    }
    bottomWall
    {
        type            zeroGradient;
    }
    frontAndBackPlanes
    {
        type            empty;
    }
}


// ************************************************************************* //
