/*--------------------------------*- C++ -*----------------------------------*\
| =========                 |                                                 |
| \\      /  F ield         | OpenFOAM: The Open Source CFD Toolbox           |
|  \\    /   O peration     | Version:  2506                                  |
|   \\  /    A nd           | Website:  www.openfoam.com                      |
|    \\/     M anipulation  |                                                 |
\*---------------------------------------------------------------------------*/
FoamFile
{
    version     2.0;
    format      ascii;
    arch        "LSB;label=32;scalar=64";
    class       volScalarField;
    location    "136.8";
    object      p_rgh;
}
// * * * * * * * * * * * * * * * * * * * * * * * * * * * * * * * * * * * * * //

dimensions      [1 -1 -2 0 0 0 0];

internalField   nonuniform List<scalar> 
200
(
100000
100000
99999.9
99999.8
99999.8
99999.7
99999.6
99999.6
99999.5
99999.5
99999.4
99999.4
99999.3
99999.2
99999.2
99999
99998.9
99998.6
99998.3
99997.8
100000
100000
99999.8
99999.7
99999.6
99999.5
99999.5
99999.4
99999.4
99999.4
99999.3
99999.3
99999.2
99999.2
99999.1
99999.1
99998.9
99998.7
99998
99996.8
100000
99999.9
99999.5
99999.3
99999.2
99999.1
99999.1
99999.1
99999.1
99999
99999
99999
99999
99999
99999
99998.9
99998.8
99998.4
99997.3
99995.3
100001
99999.8
99999.1
99998.7
99998.5
99998.5
99998.5
99998.5
99998.5
99998.5
99998.5
99998.5
99998.6
99998.6
99998.6
99998.6
99998.5
99997.9
99996.4
99993.7
100001
99999.7
99998.6
99998
99997.8
99997.7
99997.7
99997.8
99997.9
99997.9
99997.9
99998
99998
99998.1
99998.2
99998.2
99998
99997.2
99995.3
99992.1
100002
99999.5
99998
99997.2
99996.9
99996.9
99997
99997
99997.1
99997.1
99997.2
99997.2
99997.4
99997.5
99997.6
99997.6
99997.2
99996.1
99994
99990.6
100003
99999.3
99997.3
99996.3
99996
99996
99996
99996.1
99996.1
99996.1
99996.1
99996.2
99996.3
99996.4
99996.4
99996.3
99995.9
99994.8
99992.6
99989.2
100003
99998.9
99996.5
99995.4
99995
99994.9
99994.8
99994.7
99994.7
99994.6
99994.5
99994.5
99994.5
99994.6
99994.6
99994.5
99994
99993
99991
99987.8
100004
99998.4
99995.6
99994.3
99993.8
99993.5
99993.3
99993.1
99992.9
99992.8
99992.6
99992.5
99992.4
99992.3
99992.2
99992
99991.6
99990.8
99989.2
99986.6
100004
99998
99995.1
99993.7
99993
99992.7
99992.4
99992.2
99991.9
99991.6
99991.4
99991.1
99990.8
99990.5
99990.2
99989.9
99989.4
99988.7
99987.6
99985.7
)
;

boundaryField
{
    leftWall
    {
        type            fixedFluxPressure;
        gradient        nonuniform List<scalar> 10(0.982683 4.74495 11.8568 22.2195 35.6748 52.5285 74.0109 103.221 138.509 171.959);
        value           nonuniform List<scalar> 10(100000 100000 100001 100001 100002 100003 100004 100006 100007 100008);
    }
    rightWall
    {
        type            fixedFluxPressure;
        gradient        nonuniform List<scalar> 10(-13.799 -37.6094 -54.789 -66.5045 -73.968 -78.7767 -79.3714 -73.9318 -61.029 -44.7262);
        value           nonuniform List<scalar> 10(99997.4 99995.8 99993.9 99992.1 99990.3 99988.6 99987.2 99986 99985.1 99984.6);
    }
    topWall
    {
        type            fixedFluxPressure;
        gradient        uniform 0;
        value           nonuniform List<scalar> 
20
(
100000
100000
99999.9
99999.8
99999.8
99999.7
99999.6
99999.6
99999.5
99999.5
99999.4
99999.4
99999.3
99999.2
99999.2
99999
99998.9
99998.6
99998.3
99997.8
)
;
    }
    bottomWall
    {
        type            fixedFluxPressure;
        gradient        uniform 0;
        value           nonuniform List<scalar> 
20
(
100004
99998
99995.1
99993.7
99993
99992.7
99992.4
99992.2
99991.9
99991.6
99991.4
99991.1
99990.8
99990.5
99990.2
99989.9
99989.4
99988.7
99987.6
99985.7
)
;
    }
    frontAndBackPlanes
    {
        type            empty;
    }
}


// ************************************************************************* //
