/*--------------------------------*- C++ -*----------------------------------*\
| =========                 |                                                 |
| \\      /  F ield         | OpenFOAM: The Open Source CFD Toolbox           |
|  \\    /   O peration     | Version:  2506                                  |
|   \\  /    A nd           | Website:  www.openfoam.com                      |
|    \\/     M anipulation  |                                                 |
\*---------------------------------------------------------------------------*/
FoamFile
{
    version     2.0;
    format      ascii;
    arch        "LSB;label=32;scalar=64";
    class       volVectorField;
    location    "127";
    object      U;
}
// * * * * * * * * * * * * * * * * * * * * * * * * * * * * * * * * * * * * * //

dimensions      [0 1 -1 0 0 0 0];

internalField   nonuniform List<vector> 
200
(
(0.000520041 -0.00128685 0)
(0.00258827 -0.00163458 0)
(0.0047678 -0.00119891 0)
(0.00649024 -0.000641188 0)
(0.00753949 -0.000213125 0)
(0.00805774 3.20668e-05 0)
(0.0082594 0.000117721 0)
(0.00833448 8.90306e-05 0)
(0.00842328 -1.2091e-05 0)
(0.00862043 -0.000157235 0)
(0.00898592 -0.000333463 0)
(0.00955579 -0.000538146 0)
(0.0103471 -0.00076852 0)
(0.0113468 -0.00100413 0)
(0.0124702 -0.00117621 0)
(0.0134656 -0.00111367 0)
(0.0137805 -0.000466128 0)
(0.0125442 0.00127423 0)
(0.00889888 0.00416049 0)
(0.00266159 0.00565515 0)
(0.000551409 -0.00506574 0)
(0.00351257 -0.00781133 0)
(0.00673103 -0.00695408 0)
(0.00948475 -0.00491917 0)
(0.0114361 -0.00293575 0)
(0.0126572 -0.00149711 0)
(0.013368 -0.000694324 0)
(0.0137948 -0.00043515 0)
(0.0141161 -0.000571703 0)
(0.0144513 -0.000965324 0)
(0.0148654 -0.00150864 0)
(0.0153769 -0.00211535 0)
(0.0159548 -0.00268277 0)
(0.0165005 -0.00302619 0)
(0.0168111 -0.00278509 0)
(0.0165285 -0.00132012 0)
(0.0150783 0.0022821 0)
(0.0118484 0.00865408 0)
(0.00683565 0.0162708 0)
(0.0011542 0.016262 0)
(0.000518169 -0.00888724 0)
(0.00329928 -0.0141808 0)
(0.00625356 -0.0130961 0)
(0.008789 -0.00974778 0)
(0.0106216 -0.00631322 0)
(0.0118192 -0.00369401 0)
(0.012567 -0.00208983 0)
(0.0130434 -0.00137303 0)
(0.0133795 -0.00130539 0)
(0.013655 -0.00164706 0)
(0.0139057 -0.00219291 0)
(0.0141275 -0.00275716 0)
(0.0142723 -0.0031156 0)
(0.0142322 -0.00291381 0)
(0.0138146 -0.00156434 0)
(0.0127126 0.00178745 0)
(0.0106524 0.00797498 0)
(0.00749736 0.0170339 0)
(0.0036807 0.0257118 0)
(0.00041633 0.0218677 0)
(0.000451769 -0.0122995 0)
(0.00273761 -0.0196049 0)
(0.00498092 -0.0181082 0)
(0.00677877 -0.0135433 0)
(0.00799104 -0.00889538 0)
(0.00873849 -0.00535516 0)
(0.00919233 -0.00315034 0)
(0.00948154 -0.00207926 0)
(0.00967894 -0.00181048 0)
(0.00981631 -0.00202385 0)
(0.00990043 -0.00244959 0)
(0.00991927 -0.00283777 0)
(0.00983544 -0.00287862 0)
(0.00956981 -0.00209735 0)
(0.00897861 0.000224655 0)
(0.00789313 0.00495917 0)
(0.00619118 0.0127724 0)
(0.00391454 0.0230976 0)
(0.00153244 0.0314297 0)
(4.97159e-05 0.0243304 0)
(0.000370706 -0.015043 0)
(0.00199673 -0.0235221 0)
(0.00330403 -0.0213294 0)
(0.00414404 -0.0156782 0)
(0.00456268 -0.0101601 0)
(0.00473681 -0.00608321 0)
(0.00481185 -0.00359427 0)
(0.00485708 -0.00237104 0)
(0.00488618 -0.00199739 0)
(0.00489204 -0.00211063 0)
(0.00486524 -0.00242176 0)
(0.00479552 -0.00265689 0)
(0.00466018 -0.00245447 0)
(0.00440745 -0.00125702 0)
(0.00393817 0.00172764 0)
(0.00317752 0.00732993 0)
(0.00210429 0.016008 0)
(0.000878753 0.0266594 0)
(-9.47345e-05 0.0340529 0)
(-0.00017865 0.0247727 0)
(0.000272465 -0.0169655 0)
(0.00105297 -0.0256104 0)
(0.00122004 -0.0224677 0)
(0.000970872 -0.0159758 0)
(0.000549105 -0.0100307 0)
(0.000144739 -0.00584599 0)
(-0.000159773 -0.00339089 0)
(-0.000370999 -0.002223 0)
(-0.000530201 -0.00187132 0)
(-0.000663725 -0.0019738 0)
(-0.000786874 -0.00225376 0)
(-0.000911669 -0.00242964 0)
(-0.00105832 -0.00210177 0)
(-0.00125885 -0.000661841 0)
(-0.00154938 0.00269199 0)
(-0.0018977 0.00868498 0)
(-0.00218565 0.0174954 0)
(-0.00217052 0.0276219 0)
(-0.00160632 0.0337506 0)
(-0.000363912 0.023569 0)
(0.000142125 -0.0177238 0)
(-0.000261926 -0.0253771 0)
(-0.00152768 -0.0211276 0)
(-0.00298733 -0.0142429 0)
(-0.00427124 -0.00846558 0)
(-0.00524813 -0.00465062 0)
(-0.0059418 -0.00253493 0)
(-0.00643221 -0.00160033 0)
(-0.00679386 -0.00139151 0)
(-0.00707525 -0.00158101 0)
(-0.00730594 -0.00191187 0)
(-0.00750662 -0.00210065 0)
(-0.00769013 -0.0017433 0)
(-0.00784397 -0.000264442 0)
(-0.00789131 0.00302689 0)
(-0.00766404 0.00869322 0)
(-0.0069199 0.0167156 0)
(-0.0054219 0.0255461 0)
(-0.00319716 0.0303923 0)
(-0.000578562 0.0207147 0)
(-0.000201931 -0.0166655 0)
(-0.00236509 -0.0219593 0)
(-0.00528541 -0.0168577 0)
(-0.00799208 -0.0103612 0)
(-0.0100479 -0.00545475 0)
(-0.0114599 -0.00249155 0)
(-0.0123929 -0.00102367 0)
(-0.0130155 -0.000524491 0)
(-0.0134558 -0.000592557 0)
(-0.0137999 -0.000953282 0)
(-0.0140999 -0.00138979 0)
(-0.0143752 -0.00166021 0)
(-0.0146022 -0.00143093 0)
(-0.0146882 -0.000253817 0)
(-0.0144279 0.00238349 0)
(-0.0135387 0.00689907 0)
(-0.0116866 0.0132253 0)
(-0.00867479 0.0200962 0)
(-0.00479712 0.0237714 0)
(-0.000805048 0.0161392 0)
(-0.000849469 -0.012671 0)
(-0.00537459 -0.0145056 0)
(-0.00987831 -0.00953054 0)
(-0.0132812 -0.00465271 0)
(-0.0153619 -0.00152364 0)
(-0.0164779 3.18532e-05 0)
(-0.0170409 0.000557731 0)
(-0.0173381 0.000505172 0)
(-0.0175452 0.000157625 0)
(-0.017766 -0.000317151 0)
(-0.01805 -0.000796437 0)
(-0.0183957 -0.00114557 0)
(-0.0187336 -0.0011771 0)
(-0.0189049 -0.00063346 0)
(-0.0186254 0.000799725 0)
(-0.0174887 0.003428 0)
(-0.0150614 0.0072703 0)
(-0.0111138 0.0116098 0)
(-0.00607481 0.0141955 0)
(-0.00102249 0.00995762 0)
(-0.00203347 -0.0043383 0)
(-0.00718093 -0.00375261 0)
(-0.0108219 -0.00170097 0)
(-0.0127023 -0.000269782 0)
(-0.0132876 0.000396191 0)
(-0.0132159 0.000577538 0)
(-0.0129096 0.000524636 0)
(-0.0126035 0.000380566 0)
(-0.0124149 0.000207735 0)
(-0.0123927 2.8188e-05 0)
(-0.0125497 -0.000148097 0)
(-0.0128681 -0.000307891 0)
(-0.0132901 -0.000425334 0)
(-0.0136915 -0.000451879 0)
(-0.0138526 -0.00030473 0)
(-0.0134462 0.000145771 0)
(-0.0120411 0.00100435 0)
(-0.00929468 0.00221635 0)
(-0.00542048 0.00327306 0)
(-0.00128267 0.00275364 0)
)
;

boundaryField
{
    leftWall
    {
        type            fixedValue;
        value           uniform (0 0 0);
    }
    rightWall
    {
        type            fixedValue;
        value           uniform (0 0 0);
    }
    topWall
    {
        type            fixedValue;
        value           uniform (0 0 0);
    }
    bottomWall
    {
        type            fixedValue;
        value           uniform (0 0 0);
    }
    frontAndBackPlanes
    {
        type            empty;
    }
}


// ************************************************************************* //
