/*--------------------------------*- C++ -*----------------------------------*\
| =========                 |                                                 |
| \\      /  F ield         | OpenFOAM: The Open Source CFD Toolbox           |
|  \\    /   O peration     | Version:  2506                                  |
|   \\  /    A nd           | Website:  www.openfoam.com                      |
|    \\/     M anipulation  |                                                 |
\*---------------------------------------------------------------------------*/
FoamFile
{
    version     2.0;
    format      ascii;
    arch        "LSB;label=32;scalar=64";
    class       surfaceScalarField;
    location    "125";
    object      phi;
}
// * * * * * * * * * * * * * * * * * * * * * * * * * * * * * * * * * * * * * //

dimensions      [1 0 -1 0 0 0 0];

oriented        oriented;

internalField   nonuniform List<scalar> 
370
(
0.000338308
-0.000370929
0.000882934
-0.000544568
0.00135221
-0.000469189
0.00167176
-0.000319456
0.0018521
-0.000180224
0.0019357
-8.34679e-05
0.00196897
-3.31351e-05
0.00198998
-2.08694e-05
0.00202604
-3.5908e-05
0.00209536
-6.91534e-05
0.00220905
-0.000113524
0.00237316
-0.000163932
0.00258793
-0.000214591
0.00284191
-0.0002538
0.00309833
-0.000256232
0.00326957
-0.000171044
0.00318648
8.32908e-05
0.00263739
0.000549277
0.00142685
0.00121072
0.00142694
0.000456259
-0.000827157
0.00121861
-0.00130684
0.00194208
-0.00119254
0.00249627
-0.000873511
0.00286858
-0.000552399
0.00309728
-0.000312013
0.00323396
-0.000169659
0.00332554
-0.000112292
0.00340682
-0.000117026
0.00349923
-0.000161401
0.00361264
-0.000226758
0.00374567
-0.000296783
0.00388312
-0.000351864
0.00398918
-0.000359679
0.00399636
-0.000263224
0.00379883
2.66832e-05
0.00326012
0.000622196
0.00225212
0.00155747
0.000907446
0.00255557
0.00233447
0.000434459
-0.00126158
0.00113956
-0.00201184
0.00180618
-0.00185901
0.00232195
-0.00138911
0.00267863
-0.000908902
0.00290976
-0.000542958
0.0030572
-0.000316919
0.0031564
-0.000211309
0.00323178
-0.000192217
0.00329682
-0.000226254
0.00335525
-0.000285001
0.00340101
-0.000342355
0.00341565
-0.000366311
0.00336331
-0.000307142
0.00318673
-8.64475e-05
0.00281321
0.000400401
0.002192
0.00124361
0.00133626
0.00241341
0.000449917
0.00344208
0.00278446
0.000368013
-0.00162955
0.00092641
-0.00257012
0.00141854
-0.00235097
0.00177312
-0.00174349
0.00200331
-0.00113889
0.0021465
-0.000685942
0.00223677
-0.000406987
0.00229674
-0.000271072
0.00233824
-0.000233514
0.00236572
-0.000253536
0.00237869
-0.000297767
0.0023715
-0.000334958
0.00233046
-0.000325072
0.00222992
-0.000206395
0.00203198
0.000111706
0.00170086
0.000731728
0.00122274
0.00172193
0.000652703
0.00298365
0.000163214
0.00393173
0.00294774
0.000280345
-0.00190984
0.000642907
-0.00293255
0.000905413
-0.00261329
0.00105157
-0.00188944
0.00112009
-0.00120719
0.00115056
-0.000716196
0.00116662
-0.000422833
0.00117678
-0.000281032
0.00118151
-0.000238035
0.00117889
-0.000250711
0.00116692
-0.000285589
0.00114208
-0.000309906
0.00109572
-0.000278512
0.00101117
-0.000121632
0.000865832
0.000257252
0.000645441
0.000952335
0.000364108
0.00200348
9.34259e-05
0.00325453
-4.52113e-05
0.00407052
0.0029026
0.000168955
-0.00207874
0.000284268
-0.00304772
0.000275256
-0.00260408
0.00019237
-0.00180634
9.41916e-05
-0.00110879
1.16338e-05
-0.000633426
-4.92318e-05
-0.00036176
-9.3653e-05
-0.000236406
-0.000129128
-0.000202356
-0.00016064
-0.000218998
-0.000191004
-0.000255024
-0.000223614
-0.000277095
-0.000264727
-0.000237194
-0.000322577
-6.35731e-05
-0.000398838
0.000333728
-0.000480154
0.00103387
-0.000523932
0.00204747
-0.000459834
0.00319063
-0.000242466
0.0038533
0.00266019
-5.32854e-06
-0.00207336
-0.000206463
-0.00284643
-0.000530518
-0.00227983
-0.000858467
-0.00147818
-0.00112692
-0.000840134
-0.00132477
-0.000435378
-0.00146567
-0.000220658
-0.00156813
-0.000133751
-0.00164611
-0.000124184
-0.00170838
-0.000156534
-0.00176048
-0.000202732
-0.00180613
-0.000231242
-0.00184567
-0.000197458
-0.00187059
-3.84523e-05
-0.00185227
0.000315606
-0.00174595
0.000927753
-0.00149075
0.00179247
-0.00103978
0.00273984
-0.000442035
0.00325569
0.00221821
-0.000273279
-0.00180001
-0.000903095
-0.00221646
-0.00158496
-0.00159777
-0.00215075
-0.000912199
-0.00256119
-0.000429492
-0.00284002
-0.000156357
-0.00302633
-3.41542e-05
-0.00315441
-5.4891e-06
-0.00324934
-2.90715e-05
-0.0033273
-7.83835e-05
-0.00339667
-0.000133187
-0.00345679
-0.000170942
-0.003494
-0.000160071
-0.00347456
-5.77153e-05
-0.00334356
0.000184785
-0.00302817
0.000612542
-0.00245933
0.00122381
-0.00161944
0.00190011
-0.000645116
0.00228148
0.00157314
-0.000696558
-0.00110338
-0.00182167
-0.00109119
-0.00278009
-0.000639158
-0.00342318
-0.000268912
-0.00379645
-5.60321e-05
-0.00399641
4.37891e-05
-0.00410125
7.08641e-05
-0.00416312
5.65556e-05
-0.00421525
2.32181e-05
-0.00427655
-1.69283e-05
-0.0043526
-5.69769e-05
-0.00443478
-8.86115e-05
-0.00449587
-9.88353e-05
-0.00448381
-6.96309e-05
-0.00432295
2.40641e-05
-0.00391135
0.000201082
-0.00316345
0.000476038
-0.00206661
0.000803384
-0.000808872
0.00102383
0.000764305
-0.00110331
-0.00219434
-0.00283331
-0.00310203
-0.00315788
-0.00311392
-0.00304289
-0.00298617
-0.00296281
-0.00297959
-0.00303644
-0.00312492
-0.00322364
-0.00329316
-0.00326899
-0.00306781
-0.00259168
-0.00178822
-0.00076433
)
;

boundaryField
{
    leftWall
    {
        type            calculated;
        value           uniform 0;
    }
    rightWall
    {
        type            calculated;
        value           uniform 0;
    }
    topWall
    {
        type            calculated;
        value           uniform 0;
    }
    bottomWall
    {
        type            calculated;
        value           uniform 0;
    }
    frontAndBackPlanes
    {
        type            empty;
    }
}


// ************************************************************************* //
