/*--------------------------------*- C++ -*----------------------------------*\
| =========                 |                                                 |
| \\      /  F ield         | OpenFOAM: The Open Source CFD Toolbox           |
|  \\    /   O peration     | Version:  2506                                  |
|   \\  /    A nd           | Website:  www.openfoam.com                      |
|    \\/     M anipulation  |                                                 |
\*---------------------------------------------------------------------------*/
FoamFile
{
    version     2.0;
    format      ascii;
    arch        "LSB;label=32;scalar=64";
    class       volVectorField;
    location    "19.6";
    object      U;
}
// * * * * * * * * * * * * * * * * * * * * * * * * * * * * * * * * * * * * * //

dimensions      [0 1 -1 0 0 0 0];

internalField   nonuniform List<vector> 
200
(
(-0.00025313 -8.9077e-05 0)
(-0.000233857 -0.000176584 0)
(0.000227401 -0.000258668 0)
(0.000959925 -0.000381335 0)
(0.00190797 -0.000498259 0)
(0.00306458 -0.000594859 0)
(0.00438392 -0.000670281 0)
(0.00581703 -0.000726765 0)
(0.00731806 -0.000769513 0)
(0.00884645 -0.0008069 0)
(0.0103692 -0.000849732 0)
(0.0118617 -0.000909052 0)
(0.0133038 -0.000991392 0)
(0.0146638 -0.00108785 0)
(0.0158581 -0.00114786 0)
(0.0166602 -0.00101867 0)
(0.0166035 -0.000339444 0)
(0.0148518 0.00147478 0)
(0.0104836 0.00465953 0)
(0.00311966 0.00656496 0)
(-1.24311e-06 -0.000374641 0)
(0.000387671 -0.00122522 0)
(0.00131902 -0.00214548 0)
(0.00271831 -0.00305564 0)
(0.00452343 -0.0038564 0)
(0.00666037 -0.00450467 0)
(0.00904124 -0.00498211 0)
(0.0115697 -0.00528457 0)
(0.0141447 -0.00541835 0)
(0.0166623 -0.00539765 0)
(0.0190166 -0.00523898 0)
(0.0210961 -0.00494832 0)
(0.0227727 -0.0044965 0)
(0.0238832 -0.00377492 0)
(0.0241978 -0.00251724 0)
(0.0233693 -0.000173838 0)
(0.0208571 0.00414006 0)
(0.0161031 0.0111884 0)
(0.00923724 0.0196558 0)
(0.00158243 0.0196804 0)
(5.70554e-05 -0.000890184 0)
(0.000680765 -0.00287537 0)
(0.00187416 -0.0048779 0)
(0.00357586 -0.00672267 0)
(0.00568993 -0.00829472 0)
(0.00812244 -0.00952523 0)
(0.010771 -0.0103735 0)
(0.0135203 -0.010816 0)
(0.0162433 -0.010843 0)
(0.0188046 -0.0104555 0)
(0.0210642 -0.00965486 0)
(0.0228768 -0.0084183 0)
(0.024082 -0.00665616 0)
(0.0244885 -0.00415031 0)
(0.0238423 -0.000473028 0)
(0.021818 0.00505482 0)
(0.0181566 0.0131266 0)
(0.0128118 0.0237838 0)
(0.00649449 0.0336239 0)
(0.000856464 0.0283101 0)
(6.60803e-05 -0.00163613 0)
(0.000740365 -0.00488112 0)
(0.00195515 -0.00794126 0)
(0.00363608 -0.010666 0)
(0.00568281 -0.0129361 0)
(0.00800191 -0.0146632 0)
(0.0104902 -0.0157789 0)
(0.0130258 -0.0162299 0)
(0.0154701 -0.0159827 0)
(0.0176766 -0.0150274 0)
(0.0195034 -0.0133643 0)
(0.0208176 -0.0109628 0)
(0.0214893 -0.00769831 0)
(0.0213731 -0.00328017 0)
(0.0202463 0.00280223 0)
(0.0179342 0.0111378 0)
(0.0143199 0.0221378 0)
(0.00954689 0.035026 0)
(0.00441413 0.0446391 0)
(0.000472433 0.0339976 0)
(6.26677e-05 -0.00235744 0)
(0.000628667 -0.00673806 0)
(0.00162008 -0.0107189 0)
(0.00297723 -0.0141947 0)
(0.00462451 -0.0170513 0)
(0.00648904 -0.0191796 0)
(0.00848039 -0.0204721 0)
(0.0104807 -0.0208317 0)
(0.0123506 -0.0201986 0)
(0.0139501 -0.0185704 0)
(0.0151609 -0.0159822 0)
(0.0158966 -0.0124369 0)
(0.016095 -0.00780702 0)
(0.0156893 -0.00175062 0)
(0.0144953 0.00628553 0)
(0.0124595 0.0167819 0)
(0.00954718 0.0298268 0)
(0.00596769 0.0439076 0)
(0.00241925 0.0525594 0)
(0.000157499 0.0374487 0)
(3.70088e-05 -0.00287214 0)
(0.000314716 -0.00803086 0)
(0.000804519 -0.0126462 0)
(0.00149068 -0.0166605 0)
(0.00235124 -0.019958 0)
(0.00335224 -0.0223935 0)
(0.00442998 -0.0237988 0)
(0.00548498 -0.0240168 0)
(0.00639727 -0.0229668 0)
(0.00705988 -0.0206879 0)
(0.0074102 -0.0172987 0)
(0.00743774 -0.0128755 0)
(0.00716504 -0.00729893 0)
(0.00659214 -0.000155822 0)
(0.00561253 0.00915255 0)
(0.00429831 0.0209883 0)
(0.00270531 0.0351274 0)
(0.00107346 0.0494499 0)
(-0.000135312 0.0566908 0)
(-0.00022582 0.038486 0)
(-1.98249e-05 -0.00294258 0)
(-0.000237203 -0.00823718 0)
(-0.000561755 -0.0130196 0)
(-0.000946286 -0.0172314 0)
(-0.00134248 -0.0207296 0)
(-0.001734 -0.0233136 0)
(-0.00214088 -0.0247352 0)
(-0.00261515 -0.0247719 0)
(-0.00321508 -0.0233454 0)
(-0.00396517 -0.0205801 0)
(-0.00483036 -0.0167159 0)
(-0.00572471 -0.0119068 0)
(-0.00654338 -0.00602589 0)
(-0.0072211 0.00139039 0)
(-0.0076138 0.0108982 0)
(-0.00758195 0.0227378 0)
(-0.0069656 0.0364432 0)
(-0.00558934 0.0496223 0)
(-0.00345246 0.0551944 0)
(-0.000698012 0.0363737 0)
(-0.000104484 -0.0023179 0)
(-0.000933273 -0.00682151 0)
(-0.00227905 -0.0110931 0)
(-0.00405111 -0.0149623 0)
(-0.00613967 -0.0182279 0)
(-0.00846464 -0.0206322 0)
(-0.0109627 -0.0218641 0)
(-0.0135746 -0.0216755 0)
(-0.0162236 -0.0200426 0)
(-0.0187947 -0.0172053 0)
(-0.021133 -0.013512 0)
(-0.0230603 -0.00916783 0)
(-0.0243904 -0.00405901 0)
(-0.0249021 0.00223049 0)
(-0.0242596 0.0101993 0)
(-0.0222589 0.020118 0)
(-0.0186831 0.0315419 0)
(-0.0135234 0.0423251 0)
(-0.00737319 0.0464844 0)
(-0.00126888 0.0302756 0)
(-0.00012864 -0.00106188 0)
(-0.00125178 -0.00382659 0)
(-0.00331998 -0.00675654 0)
(-0.00626314 -0.00952812 0)
(-0.00994903 -0.0119185 0)
(-0.0142187 -0.0136806 0)
(-0.0188658 -0.0145209 0)
(-0.0236353 -0.0142305 0)
(-0.0282449 -0.0128496 0)
(-0.0324209 -0.0106786 0)
(-0.0359272 -0.00809478 0)
(-0.0385666 -0.00531967 0)
(-0.0401447 -0.0022866 0)
(-0.0403791 0.00134612 0)
(-0.0388653 0.00607595 0)
(-0.035289 0.0122649 0)
(-0.0292893 0.0196832 0)
(-0.0208907 0.0269107 0)
(-0.0111171 0.0300207 0)
(-0.00185509 0.0199428 0)
(7.8279e-06 -3.33267e-05 0)
(-0.00057217 -0.000577822 0)
(-0.00207463 -0.00125361 0)
(-0.00449459 -0.00191783 0)
(-0.00775307 -0.00250583 0)
(-0.0116976 -0.00294748 0)
(-0.016077 -0.00314701 0)
(-0.0205418 -0.00303654 0)
(-0.0247123 -0.00264618 0)
(-0.028284 -0.00210606 0)
(-0.0310954 -0.00157061 0)
(-0.0331109 -0.00113161 0)
(-0.034331 -0.000771542 0)
(-0.0346741 -0.000352337 0)
(-0.0338961 0.000381704 0)
(-0.0315256 0.00169496 0)
(-0.0269867 0.00367793 0)
(-0.0199843 0.00605413 0)
(-0.011269 0.00770984 0)
(-0.00265719 0.00589542 0)
)
;

boundaryField
{
    leftWall
    {
        type            fixedValue;
        value           uniform (0 0 0);
    }
    rightWall
    {
        type            fixedValue;
        value           uniform (0 0 0);
    }
    topWall
    {
        type            fixedValue;
        value           uniform (0 0 0);
    }
    bottomWall
    {
        type            fixedValue;
        value           uniform (0 0 0);
    }
    frontAndBackPlanes
    {
        type            empty;
    }
}


// ************************************************************************* //
