/*--------------------------------*- C++ -*----------------------------------*\
| =========                 |                                                 |
| \\      /  F ield         | OpenFOAM: The Open Source CFD Toolbox           |
|  \\    /   O peration     | Version:  2506                                  |
|   \\  /    A nd           | Website:  www.openfoam.com                      |
|    \\/     M anipulation  |                                                 |
\*---------------------------------------------------------------------------*/
FoamFile
{
    version     2.0;
    format      ascii;
    arch        "LSB;label=32;scalar=64";
    class       surfaceScalarField;
    location    "101.4";
    object      phi;
}
// * * * * * * * * * * * * * * * * * * * * * * * * * * * * * * * * * * * * * //

dimensions      [1 0 -1 0 0 0 0];

oriented        oriented;

internalField   nonuniform List<scalar> 
370
(
0.000254508
-0.000298352
0.000706007
-0.000451425
0.00110767
-0.000401553
0.00139454
-0.000286741
0.00157105
-0.000176356
0.0016698
-9.85904e-05
0.00172846
-5.84889e-05
0.00177923
-5.05839e-05
0.0018461
-6.66878e-05
0.00194571
-9.94112e-05
0.00208919
-0.000143274
0.00228337
-0.000193972
0.00252944
-0.00024586
0.00281655
-0.000286892
0.00310771
-0.000290927
0.00331396
-0.000206029
0.00325564
5.85602e-05
0.0027166
0.000539263
0.00148287
0.00123394
0.00148298
0.00038893
-0.000687243
0.00105346
-0.00111585
0.00169996
-0.0010479
0.00221157
-0.000798181
0.00257275
-0.000537346
0.00281323
-0.000338879
0.00297594
-0.000220997
0.00310083
-0.000175271
0.00321824
-0.000183888
0.00334761
-0.000228567
0.00349811
-0.00029356
0.00366848
-0.000364116
0.00384378
-0.000420937
0.0039879
-0.000430783
0.00403142
-0.000334213
0.00386308
-3.74453e-05
0.00334312
0.00057876
0.00232639
0.00155623
0.000944269
0.00261626
0.00242735
0.000394914
-0.00108211
0.00104667
-0.00176747
0.00167588
-0.00167692
0.00217625
-0.00129833
0.00253566
-0.00089652
0.00278138
-0.000584356
0.00294985
-0.000389223
0.00307283
-0.00029801
0.00317273
-0.000283546
0.00326221
-0.000317811
0.00334491
-0.000376009
0.00341495
-0.000433907
0.00345396
-0.000459697
0.00342552
-0.000402091
0.00327048
-0.000178911
0.00290958
0.000323713
0.00228465
0.00120396
0.00140478
0.00243635
0.000478772
0.00354248
0.00290622
0.000353619
-0.00143567
0.000903118
-0.00231681
0.00140076
-0.00217433
0.00177152
-0.00166883
0.00202209
-0.00114682
0.00218493
-0.000746921
0.00229181
-0.000495828
0.00236501
-0.000370945
0.00241712
-0.000335385
0.00245358
-0.000353998
0.00247475
-0.000396907
0.00247563
-0.000434522
0.00244281
-0.0004266
0.00234972
-0.000308731
0.00215588
1.52062e-05
0.00181922
0.000660656
0.00132248
0.00170097
0.000718744
0.00304035
0.000187731
0.00407371
0.00309405
0.000286294
-0.0017219
0.000675391
-0.00270573
0.000975639
-0.00247433
0.00115899
-0.0018519
0.00125679
-0.00124432
0.00130619
-0.000796026
0.00133172
-0.00052107
0.00134457
-0.000383508
0.00134782
-0.000338357
0.00134153
-0.000347429
0.00132497
-0.000380064
0.0012954
-0.000404678
0.00124444
-0.00037535
0.00115453
-0.000218541
0.000999558
0.000170472
0.000763376
0.000897132
0.000455727
0.00200891
0.000148806
0.00334754
-2.60401e-05
0.00424877
0.00306809
0.00018843
-0.00191025
0.000353988
-0.00287109
0.000399169
-0.00251924
0.000358651
-0.00181109
0.000286078
-0.00117145
0.000214338
-0.000723995
0.000154071
-0.000460517
0.000103739
-0.000332895
5.8799e-05
-0.000293138
1.61329e-05
-0.000304486
-2.60147e-05
-0.00033764
-7.06198e-05
-0.000359795
-0.000124308
-0.00032138
-0.000196457
-0.000146103
-0.000291191
0.000265503
-0.000395837
0.00100208
-0.000467572
0.00208094
-0.000432676
0.00331291
-0.000237828
0.00405412
0.00283035
2.56969e-05
-0.00193587
-0.000120284
-0.0027249
-0.000392219
-0.00224704
-0.00068651
-0.00151651
-0.000940833
-0.000916845
-0.00113894
-0.00052561
-0.00128893
-0.000310249
-0.00140504
-0.000216507
-0.00149888
-0.000199036
-0.00157783
-0.000225261
-0.00164689
-0.000268318
-0.00171003
-0.000296381
-0.00176862
-0.000262519
-0.00181513
-9.93114e-05
-0.00182128
0.000271932
-0.00173868
0.000919772
-0.00150183
0.00184436
-0.00105866
0.00286999
-0.000454959
0.0034506
0.00237546
-0.00024071
-0.00169507
-0.000818273
-0.00214712
-0.00146255
-0.00160249
-0.00201359
-0.000965186
-0.00242789
-0.000502271
-0.00272158
-0.000231652
-0.00292912
-0.00010244
-0.00308103
-6.43356e-05
-0.00320013
-7.96833e-05
-0.00330206
-0.000123074
-0.00339498
-0.000175151
-0.0034788
-0.000212317
-0.00354033
-0.000200735
-0.00354557
-9.38269e-05
-0.00343569
0.000162308
-0.00313238
0.000616705
-0.00255993
0.00127215
-0.00169588
0.00200616
-0.000679906
0.00243479
0.00169562
-0.000654833
-0.00104014
-0.00173476
-0.00106696
-0.00268039
-0.000656596
-0.00333924
-0.000306063
-0.00374622
-9.50224e-05
-0.00397793
3.21211e-07
-0.00411893
3.88035e-05
-0.00421416
3.11299e-05
-0.00429482
1.21388e-06
-0.00438393
-3.37409e-05
-0.00448604
-7.28265e-05
-0.00459367
-0.000104484
-0.00467929
-0.000114904
-0.00468847
-8.44526e-05
-0.00454123
1.5267e-05
-0.00412715
0.00020282
-0.00335292
0.000498107
-0.00220057
0.000853971
-0.000865695
0.00110004
0.000829978
-0.00104003
-0.00210677
-0.0027631
-0.0030689
-0.00316366
-0.00316309
-0.00312406
-0.00309271
-0.00309129
-0.00312483
-0.00319748
-0.00330179
-0.00341653
-0.00350082
-0.00348541
-0.00328245
-0.00278422
-0.00193014
-0.000830014
)
;

boundaryField
{
    leftWall
    {
        type            calculated;
        value           nonuniform List<scalar> 10(0 0 0 1.0842e-19 0 0 0 0 0 0);
    }
    rightWall
    {
        type            calculated;
        value           nonuniform List<scalar> 10(0 0 0 0 0 0 0 0 -4.33681e-19 0);
    }
    topWall
    {
        type            calculated;
        value           uniform 0;
    }
    bottomWall
    {
        type            calculated;
        value           uniform 0;
    }
    frontAndBackPlanes
    {
        type            empty;
    }
}


// ************************************************************************* //
