/*--------------------------------*- C++ -*----------------------------------*\
| =========                 |                                                 |
| \\      /  F ield         | OpenFOAM: The Open Source CFD Toolbox           |
|  \\    /   O peration     | Version:  2506                                  |
|   \\  /    A nd           | Website:  www.openfoam.com                      |
|    \\/     M anipulation  |                                                 |
\*---------------------------------------------------------------------------*/
FoamFile
{
    version     2.0;
    format      ascii;
    arch        "LSB;label=32;scalar=64";
    class       volScalarField;
    location    "27.6";
    object      T;
}
// * * * * * * * * * * * * * * * * * * * * * * * * * * * * * * * * * * * * * //

dimensions      [0 0 0 1 0 0 0];

internalField   nonuniform List<scalar> 
200
(
273.15
273.149
273.148
273.147
273.146
273.146
273.146
273.145
273.145
273.145
273.145
273.145
273.146
273.147
273.149
273.157
273.179
273.24
273.404
273.79
273.149
273.148
273.147
273.146
273.145
273.144
273.144
273.144
273.143
273.143
273.143
273.143
273.143
273.144
273.146
273.151
273.17
273.23
273.404
273.808
273.149
273.147
273.145
273.144
273.143
273.142
273.142
273.142
273.142
273.142
273.142
273.142
273.142
273.142
273.143
273.148
273.169
273.236
273.423
273.831
273.149
273.146
273.144
273.142
273.141
273.142
273.143
273.144
273.145
273.146
273.146
273.145
273.144
273.142
273.142
273.149
273.173
273.25
273.45
273.856
273.148
273.145
273.142
273.141
273.142
273.146
273.151
273.155
273.158
273.16
273.159
273.157
273.153
273.149
273.148
273.155
273.186
273.274
273.486
273.882
273.148
273.144
273.141
273.142
273.149
273.16
273.171
273.181
273.188
273.19
273.188
273.182
273.173
273.166
273.164
273.175
273.215
273.317
273.539
273.911
273.147
273.142
273.142
273.149
273.167
273.189
273.212
273.229
273.239
273.242
273.239
273.23
273.221
273.216
273.219
273.239
273.289
273.396
273.604
273.937
273.146
273.142
273.146
273.166
273.2
273.239
273.274
273.3
273.317
273.326
273.329
273.329
273.328
273.329
273.338
273.362
273.413
273.511
273.687
273.967
273.146
273.142
273.154
273.187
273.238
273.295
273.348
273.391
273.424
273.449
273.467
273.482
273.493
273.503
273.517
273.541
273.584
273.66
273.792
274.004
273.144
273.139
273.15
273.185
273.24
273.306
273.371
273.432
273.484
273.529
273.567
273.601
273.63
273.657
273.684
273.714
273.754
273.813
273.904
274.047
)
;

boundaryField
{
    leftWall
    {
        type            fixedValue;
        value           uniform 273.15;
    }
    rightWall
    {
        type            customNeumannDirichletCoupledBoundary;
        refValue        nonuniform List<scalar> 10(274.125 274.126 274.127 274.129 274.13 274.132 274.134 274.136 274.138 274.14);
        refGradient     uniform 0;
        valueFraction   uniform 1;
        source          uniform 0;
        value           nonuniform List<scalar> 10(274.125 274.126 274.127 274.129 274.13 274.132 274.134 274.136 274.138 274.14);
        kappaMethod     fluidThermo;
    }
    topWall
    {
        type            zeroGradient;
    }
    bottomWall
    {
        type            zeroGradient;
    }
    frontAndBackPlanes
    {
        type            empty;
    }
}


// ************************************************************************* //
