/*--------------------------------*- C++ -*----------------------------------*\
| =========                 |                                                 |
| \\      /  F ield         | OpenFOAM: The Open Source CFD Toolbox           |
|  \\    /   O peration     | Version:  2506                                  |
|   \\  /    A nd           | Website:  www.openfoam.com                      |
|    \\/     M anipulation  |                                                 |
\*---------------------------------------------------------------------------*/
FoamFile
{
    version     2.0;
    format      ascii;
    arch        "LSB;label=32;scalar=64";
    class       volScalarField;
    location    "13.8";
    object      p_rgh;
}
// * * * * * * * * * * * * * * * * * * * * * * * * * * * * * * * * * * * * * //

dimensions      [1 -1 -2 0 0 0 0];

internalField   nonuniform List<scalar> 
200
(
100000
100000
100000
100000
100000
100000
100000
100000
100000
100000
100000
100000
99999.9
99999.8
99999.7
99999.6
99999.4
99999.2
99998.8
99998.1
100000
100000
100000
100000
100000
100000
100000
100000
100000
100000
100000
100000
99999.9
99999.9
99999.8
99999.7
99999.6
99999.3
99998.5
99997
100000
100000
100000
100000
100000
100000
100000
100000
100000
100000
100000
100000
100000
99999.9
99999.8
99999.8
99999.6
99999.1
99997.9
99995.2
100000
100000
100000
100000
100000
100000
100000
100000
100000
100000
100000
100000
100000
100000
99999.9
99999.8
99999.5
99998.7
99996.9
99993.2
100000
100000
100000
100000
100000
100000
100000
100000
100000
100000
100000
100000
100000
100000
100000
99999.8
99999.3
99998.2
99995.6
99991
100000
100000
100000
100000
100000
100000
100000
100000
100000
100000
100000
100000
100000
100000
100000
99999.7
99999
99997.4
99994.2
99988.7
100000
100000
100000
100001
100001
100001
100001
100001
100001
100001
100000
100000
100000
99999.9
99999.7
99999.2
99998.2
99996.2
99992.5
99986.4
100000
100000
100001
100001
100001
100001
100001
100001
100001
100001
100000
100000
99999.7
99999.2
99998.6
99997.8
99996.6
99994.4
99990.5
99984.4
100000
100000
100001
100001
100001
100001
100001
100001
100001
100001
100000
99999.6
99998.6
99997.6
99996.4
99995.3
99993.9
99991.8
99988.3
99982.5
100000
100000
100001
100001
100001
100001
100001
100001
100001
100001
100000
99999.4
99998
99996.4
99994.7
99993
99991.2
99989.1
99986
99981
)
;

boundaryField
{
    leftWall
    {
        type            fixedFluxPressure;
        gradient        nonuniform List<scalar> 10(-0.0197531 -0.159668 -0.527225 -1.13592 -1.99859 -3.14811 -4.60121 -6.30178 -8.02615 -9.47345);
        value           nonuniform List<scalar> 10(100000 100000 100000 100000 100000 100000 100000 100000 99999.9 99999.8);
    }
    rightWall
    {
        type            fixedFluxPressure;
        gradient        nonuniform List<scalar> 10(-18.0869 -50.9685 -77.9426 -100.213 -118.369 -131.475 -143.537 -151.7 -151.4 -141.303);
        value           nonuniform List<scalar> 10(99997.7 99995.7 99993.2 99990.7 99988 99985.4 99982.9 99980.6 99978.7 99977.5);
    }
    topWall
    {
        type            fixedFluxPressure;
        gradient        uniform 0;
        value           nonuniform List<scalar> 
20
(
100000
100000
100000
100000
100000
100000
100000
100000
100000
100000
100000
100000
99999.9
99999.8
99999.7
99999.6
99999.4
99999.2
99998.8
99998.1
)
;
    }
    bottomWall
    {
        type            fixedFluxPressure;
        gradient        uniform 0;
        value           nonuniform List<scalar> 
20
(
100000
100000
100001
100001
100001
100001
100001
100001
100001
100001
100000
99999.4
99998
99996.4
99994.7
99993
99991.2
99989.1
99986
99981
)
;
    }
    frontAndBackPlanes
    {
        type            empty;
    }
}


// ************************************************************************* //
