/*--------------------------------*- C++ -*----------------------------------*\
| =========                 |                                                 |
| \\      /  F ield         | OpenFOAM: The Open Source CFD Toolbox           |
|  \\    /   O peration     | Version:  2506                                  |
|   \\  /    A nd           | Website:  www.openfoam.com                      |
|    \\/     M anipulation  |                                                 |
\*---------------------------------------------------------------------------*/
FoamFile
{
    version     2.0;
    format      ascii;
    arch        "LSB;label=32;scalar=64";
    class       volScalarField;
    location    "19";
    object      p_rgh;
}
// * * * * * * * * * * * * * * * * * * * * * * * * * * * * * * * * * * * * * //

dimensions      [1 -1 -2 0 0 0 0];

internalField   nonuniform List<scalar> 
200
(
100000
100000
100000
100000
100000
100000
100000
100000
100000
100000
100000
99999.9
99999.9
99999.8
99999.7
99999.6
99999.4
99999.2
99998.8
99998.1
100000
100000
100000
100000
100000
100000
100000
100000
100000
100000
100000
99999.9
99999.9
99999.8
99999.8
99999.7
99999.6
99999.3
99998.6
99997
100000
100000
100000
100000
100000
100000
100000
100000
100000
100000
100000
100000
99999.9
99999.9
99999.8
99999.7
99999.6
99999.1
99997.9
99995.2
100000
100000
100000
100000
100000
100000
100000
100000
100000
100000
100000
100000
100000
99999.9
99999.9
99999.8
99999.5
99998.8
99997
99993.2
100000
100000
100000
100000
100000
100000
100000
100000
100000
100000
100000
100000
100000
99999.9
99999.8
99999.7
99999.3
99998.2
99995.7
99991
100000
100000
100000
100000
100000
100000
100000
100000
100000
100000
100000
99999.9
99999.8
99999.8
99999.7
99999.5
99998.9
99997.4
99994.1
99988.6
100000
100000
100001
100001
100001
100001
100001
100000
100000
99999.9
99999.6
99999.4
99999.3
99999.2
99999.1
99998.7
99997.8
99995.9
99992.3
99986.4
100000
100000
100001
100001
100001
100001
100001
100000
99999.7
99999.1
99998.6
99998.1
99997.8
99997.6
99997.3
99996.7
99995.7
99993.7
99990.1
99984.3
100000
100001
100001
100001
100001
100001
100001
99999.9
99999
99997.9
99996.8
99995.9
99995.1
99994.5
99994.1
99993.5
99992.4
99990.7
99987.5
99982.3
100000
100001
100001
100001
100001
100001
100001
100000
99998.9
99997.5
99995.9
99994.4
99993
99991.9
99990.9
99990
99988.9
99987.4
99984.9
99980.8
)
;

boundaryField
{
    leftWall
    {
        type            fixedFluxPressure;
        gradient        nonuniform List<scalar> 10(-0.0237711 -0.139961 -0.420856 -0.884906 -1.55667 -2.47589 -3.72326 -5.28545 -6.88539 -8.00602);
        value           nonuniform List<scalar> 10(100000 100000 100000 100000 100000 100000 100000 100000 100000 100000);
    }
    rightWall
    {
        type            fixedFluxPressure;
        gradient        nonuniform List<scalar> 10(-17.9425 -51.1238 -79.0031 -102.167 -120.107 -131.083 -139.247 -140.812 -131.247 -110.595);
        value           nonuniform List<scalar> 10(99997.7 99995.7 99993.3 99990.7 99988 99985.4 99982.9 99980.7 99979.1 99978);
    }
    topWall
    {
        type            fixedFluxPressure;
        gradient        uniform 0;
        value           nonuniform List<scalar> 
20
(
100000
100000
100000
100000
100000
100000
100000
100000
100000
100000
100000
99999.9
99999.9
99999.8
99999.7
99999.6
99999.4
99999.2
99998.8
99998.1
)
;
    }
    bottomWall
    {
        type            fixedFluxPressure;
        gradient        uniform 0;
        value           nonuniform List<scalar> 
20
(
100000
100001
100001
100001
100001
100001
100001
100000
99998.9
99997.5
99995.9
99994.4
99993
99991.9
99990.9
99990
99988.9
99987.4
99984.9
99980.8
)
;
    }
    frontAndBackPlanes
    {
        type            empty;
    }
}


// ************************************************************************* //
