/*--------------------------------*- C++ -*----------------------------------*\
| =========                 |                                                 |
| \\      /  F ield         | OpenFOAM: The Open Source CFD Toolbox           |
|  \\    /   O peration     | Version:  2506                                  |
|   \\  /    A nd           | Website:  www.openfoam.com                      |
|    \\/     M anipulation  |                                                 |
\*---------------------------------------------------------------------------*/
FoamFile
{
    version     2.0;
    format      ascii;
    arch        "LSB;label=32;scalar=64";
    class       surfaceScalarField;
    location    "19";
    object      phi;
}
// * * * * * * * * * * * * * * * * * * * * * * * * * * * * * * * * * * * * * //

dimensions      [1 0 -1 0 0 0 0];

oriented        oriented;

internalField   nonuniform List<scalar> 
370
(
-7.87482e-05
-3.00439e-05
-1.17793e-06
-7.75745e-05
0.000133427
-0.000134612
0.000327381
-0.000193966
0.000574424
-0.000247058
0.000865533
-0.000291128
0.00119073
-0.000325222
0.00153986
-0.000349147
0.00190316
-0.000363322
0.00227185
-0.000368718
0.00263847
-0.000366642
0.00299656
-0.00035811
0.00333855
-0.000342008
0.00364949
-0.000310961
0.00389518
-0.000245703
0.00399312
-9.79424e-05
0.00380353
0.000189603
0.003105
0.000698568
0.00168635
0.0014187
0.0016864
3.72183e-05
-6.72595e-05
0.00019207
-0.00023242
0.000460304
-0.000402839
0.000830941
-0.000564598
0.0012896
-0.000705719
0.00181834
-0.000819867
0.00239681
-0.000903706
0.00300296
-0.000955304
0.00361319
-0.000973567
0.0042025
-0.000958043
0.00474414
-0.00090829
0.00520804
-0.000822023
0.00555736
-0.000691332
0.00574275
-0.000496363
0.00569279
-0.000195759
0.00531029
0.000284536
0.00446157
0.00103829
0.00304673
0.00211337
0.00123429
0.00323112
0.00292067
7.51942e-05
-0.000142445
0.000284939
-0.000442143
0.000617205
-0.000735078
0.00105508
-0.00100245
0.00158021
-0.00123083
0.00217176
-0.0014114
0.00280591
-0.00153785
0.00345551
-0.0016049
0.00409011
-0.00160815
0.00467644
-0.00154436
0.00517888
-0.00141072
0.00555861
-0.00120174
0.0057708
-0.000903507
0.00576009
-0.000485655
0.00545756
0.000106768
0.00479245
0.00094961
0.00372265
0.00210804
0.00230076
0.00353516
0.000822333
0.00470944
0.00374295
8.07393e-05
-0.00022317
0.000295324
-0.000656691
0.000622739
-0.00106245
0.00104501
-0.00142468
0.00154415
-0.00172993
0.00210005
-0.00196727
0.00268877
-0.00212654
0.00328141
-0.00219751
0.00384458
-0.00217127
0.00434247
-0.00204219
0.00473934
-0.0018075
0.00500002
-0.00146235
0.00508745
-0.000990868
0.00495861
-0.000356772
0.00456411
0.000501283
0.00386663
0.00164707
0.00286747
0.00310711
0.00166395
0.00473853
0.000537929
0.0058353
0.00428079
6.65269e-05
-0.000289677
0.00023778
-0.000827894
0.000496413
-0.00132101
0.000829796
-0.001758
0.00122537
-0.00212545
0.00166771
-0.00240956
0.00213575
-0.00259451
0.00260131
-0.00266296
0.00303089
-0.00260069
0.00339059
-0.00240165
0.00365113
-0.00206779
0.00378934
-0.00160031
0.00378429
-0.000985611
0.00361186
-0.000184214
0.00323939
0.000873841
0.00265184
0.00223463
0.00187256
0.00388633
0.00100521
0.00560574
0.000276611
0.00656374
0.00455733
2.91551e-05
-0.000318808
0.000105016
-0.000903695
0.000224588
-0.00144051
0.000387002
-0.00192034
0.000589622
-0.002328
0.000825236
-0.00264508
0.0010787
-0.00284779
0.0013259
-0.00290986
0.00153796
-0.00281226
0.00168938
-0.00255245
0.00176501
-0.00214274
0.00176018
-0.00159487
0.00167378
-0.000898745
0.00150128
-1.1413e-05
0.00123059
0.00114478
0.000873249
0.00259211
0.000471606
0.004288
0.000120166
0.00595714
-5.10493e-05
0.00673494
0.00450624
-3.47707e-05
-0.000284009
-0.000110396
-0.000828003
-0.000206458
-0.00134437
-0.000309411
-0.0018173
-0.000410192
-0.0022271
-0.000505342
-0.00254971
-0.000599976
-0.00275272
-0.000707283
-0.00280177
-0.000841381
-0.002677
-0.00100737
-0.00238505
-0.00119622
-0.00195245
-0.00138837
-0.0014015
-0.0015616
-0.000724616
-0.00169792
0.000125616
-0.00175646
0.00120388
-0.00170483
0.0025409
-0.00149493
0.00407839
-0.00107849
0.00554089
-0.000480673
0.00613723
0.0040256
-0.000111351
-0.000172633
-0.000368053
-0.000571239
-0.000730735
-0.000981607
-0.00117701
-0.00137092
-0.00168782
-0.00171607
-0.00224551
-0.00199154
-0.00283546
-0.00216178
-0.00344456
-0.00219099
-0.00405494
-0.0020643
-0.004638
-0.00179934
-0.00515415
-0.00143376
-0.00555673
-0.000996776
-0.00579452
-0.000485135
-0.00580895
0.000141373
-0.00552662
0.000922559
-0.00489497
0.00191005
-0.00387789
0.00306194
-0.00250106
0.00416453
-0.000982402
0.00461891
0.00304334
-0.000133858
-3.87543e-05
-0.000490221
-0.000214821
-0.00104901
-0.000422738
-0.00179396
-0.000625813
-0.00269986
-0.000809822
-0.0037302
-0.000960361
-0.00483663
-0.00105363
-0.00595973
-0.00106508
-0.00703326
-0.000987029
-0.00799131
-0.000837118
-0.00877381
-0.000647245
-0.00932443
-0.00044269
-0.00958
-0.00022682
-0.00946567
2.9092e-05
-0.0088953
0.000353795
-0.00778411
0.000800155
-0.00608118
0.00136005
-0.00385049
0.00193469
-0.00146418
0.00223321
0.00157945
-3.87346e-05
-0.000253508
-0.000676176
-0.00130187
-0.00211138
-0.00307093
-0.00412278
-0.00518478
-0.00616749
-0.00699956
-0.00764169
-0.00807969
-0.00830252
-0.00827021
-0.00791387
-0.00711168
-0.00575
-0.00381404
-0.0015799
)
;

boundaryField
{
    leftWall
    {
        type            calculated;
        value           uniform 0;
    }
    rightWall
    {
        type            calculated;
        value           nonuniform List<scalar> 10(0 0 0 0 0 0 8.67362e-19 0 0 0);
    }
    topWall
    {
        type            calculated;
        value           uniform 0;
    }
    bottomWall
    {
        type            calculated;
        value           uniform 0;
    }
    frontAndBackPlanes
    {
        type            empty;
    }
}


// ************************************************************************* //
