/*--------------------------------*- C++ -*----------------------------------*\
| =========                 |                                                 |
| \\      /  F ield         | OpenFOAM: The Open Source CFD Toolbox           |
|  \\    /   O peration     | Version:  2506                                  |
|   \\  /    A nd           | Website:  www.openfoam.com                      |
|    \\/     M anipulation  |                                                 |
\*---------------------------------------------------------------------------*/
FoamFile
{
    version     2.0;
    format      ascii;
    arch        "LSB;label=32;scalar=64";
    class       volVectorField;
    location    "27.4";
    object      U;
}
// * * * * * * * * * * * * * * * * * * * * * * * * * * * * * * * * * * * * * //

dimensions      [0 1 -1 0 0 0 0];

internalField   nonuniform List<vector> 
200
(
(-0.000249814 -8.39656e-05 0)
(-0.000145182 -0.000215528 0)
(0.000523734 -0.00033814 0)
(0.00155012 -0.000486822 0)
(0.00278486 -0.000599261 0)
(0.00416919 -0.000657554 0)
(0.00560993 -0.000671058 0)
(0.00703021 -0.000658134 0)
(0.00838401 -0.000640775 0)
(0.00965669 -0.000640741 0)
(0.0108597 -0.000676297 0)
(0.0120211 -0.000759475 0)
(0.0131704 -0.000891914 0)
(0.0143153 -0.00105441 0)
(0.015396 -0.00118258 0)
(0.0161916 -0.00110973 0)
(0.016214 -0.000464779 0)
(0.0145942 0.00134906 0)
(0.010363 0.00456449 0)
(0.00309842 0.00651747 0)
(3.22192e-05 -0.000579439 0)
(0.000749471 -0.00185448 0)
(0.00222803 -0.00308563 0)
(0.00428558 -0.00411873 0)
(0.00671781 -0.00481794 0)
(0.00933319 -0.00516066 0)
(0.0119617 -0.00519462 0)
(0.0144706 -0.00500758 0)
(0.016771 -0.00470031 0)
(0.0188128 -0.00436345 0)
(0.0205699 -0.00405894 0)
(0.0220197 -0.00380343 0)
(0.0231174 -0.00354694 0)
(0.0237645 -0.00313498 0)
(0.0237691 -0.00223819 0)
(0.0227974 -0.000239368 0)
(0.0203064 0.00380387 0)
(0.0156985 0.0107221 0)
(0.00903338 0.0192304 0)
(0.00155249 0.0194571 0)
(0.000120247 -0.00159536 0)
(0.00130652 -0.00469065 0)
(0.00336134 -0.00737582 0)
(0.00602893 -0.00938294 0)
(0.00900041 -0.0105926 0)
(0.0120219 -0.0110279 0)
(0.0148984 -0.0108188 0)
(0.017496 -0.0101508 0)
(0.0197371 -0.00921263 0)
(0.0215852 -0.0081532 0)
(0.0230212 -0.00704964 0)
(0.0240161 -0.00588157 0)
(0.0245034 -0.00450215 0)
(0.0243517 -0.00259621 0)
(0.0233279 0.000381046 0)
(0.0211346 0.00519479 0)
(0.017492 0.0126685 0)
(0.0123139 0.0229723 0)
(0.00623776 0.032794 0)
(0.000819727 0.0278463 0)
(0.00016463 -0.00312053 0)
(0.00163415 -0.00845022 0)
(0.00399178 -0.012613 0)
(0.00687261 -0.0154112 0)
(0.00988671 -0.0168116 0)
(0.0127457 -0.0169589 0)
(0.0152602 -0.0161325 0)
(0.017333 -0.0146636 0)
(0.018941 -0.0128524 0)
(0.0201073 -0.0109071 0)
(0.0208661 -0.0089045 0)
(0.0212294 -0.00676294 0)
(0.0211588 -0.00421794 0)
(0.0205392 -0.00080031 0)
(0.0191448 0.00414763 0)
(0.0168013 0.0113525 0)
(0.0133445 0.0214096 0)
(0.00886165 0.0337243 0)
(0.00406979 0.0432735 0)
(0.000423303 0.0332157 0)
(0.000201638 -0.00490734 0)
(0.00174933 -0.0125621 0)
(0.00404247 -0.0180103 0)
(0.00665315 -0.0212371 0)
(0.00916547 -0.0223854 0)
(0.0113028 -0.0218075 0)
(0.0129243 -0.0200093 0)
(0.0140097 -0.0175199 0)
(0.0146268 -0.0147726 0)
(0.0148859 -0.012028 0)
(0.014893 -0.00933747 0)
(0.0147127 -0.00652431 0)
(0.0143387 -0.00317606 0)
(0.0136414 0.00133599 0)
(0.0124791 0.00771944 0)
(0.0106851 0.0166638 0)
(0.00816281 0.0284722 0)
(0.00505156 0.0418344 0)
(0.00197173 0.0504451 0)
(9.33058e-05 0.0362333 0)
(0.000206517 -0.00668579 0)
(0.00148042 -0.0163181 0)
(0.00314645 -0.0225589 0)
(0.00481327 -0.0256965 0)
(0.00613863 -0.0261229 0)
(0.00692912 -0.0244657 0)
(0.007147 -0.0215192 0)
(0.00688717 -0.0180411 0)
(0.00632316 -0.0145917 0)
(0.00564409 -0.0114502 0)
(0.00499984 -0.00859073 0)
(0.00446657 -0.00568728 0)
(0.00403346 -0.00214031 0)
(0.00357427 0.00284115 0)
(0.00299098 0.0100255 0)
(0.00217849 0.0200031 0)
(0.00114479 0.0327501 0)
(8.36062e-05 0.0463317 0)
(-0.000584998 0.0536251 0)
(-0.00027451 0.0367626 0)
(0.000133774 -0.00791016 0)
(0.00056102 -0.0185027 0)
(0.000809583 -0.0247257 0)
(0.00067665 -0.0271964 0)
(3.56162e-05 -0.0265604 0)
(-0.00112452 -0.0237308 0)
(-0.00267341 -0.0198145 0)
(-0.00440194 -0.0157742 0)
(-0.00608763 -0.0122196 0)
(-0.00754766 -0.00934286 0)
(-0.00867442 -0.00695084 0)
(-0.00943782 -0.00453162 0)
(-0.00985881 -0.00133707 0)
(-0.00996849 0.0034799 0)
(-0.00975165 0.010636 0)
(-0.0091616 0.0205455 0)
(-0.0080556 0.032876 0)
(-0.00624787 0.0453879 0)
(-0.00374196 0.0512358 0)
(-0.000726306 0.0341962 0)
(-8.40133e-05 -0.00771219 0)
(-0.00120784 -0.0174445 0)
(-0.00322395 -0.0225839 0)
(-0.00593927 -0.0239135 0)
(-0.00907829 -0.0222806 0)
(-0.0123749 -0.0188227 0)
(-0.0155736 -0.0147585 0)
(-0.0184658 -0.0110401 0)
(-0.0209182 -0.00815904 0)
(-0.0228747 -0.00614698 0)
(-0.024331 -0.00467562 0)
(-0.0252911 -0.00317134 0)
(-0.0257165 -0.000916258 0)
(-0.0254528 0.0028396 0)
(-0.0243171 0.00871731 0)
(-0.0220613 0.0170172 0)
(-0.0184233 0.02733 0)
(-0.013319 0.0376225 0)
(-0.00726279 0.0421901 0)
(-0.00124197 0.0279479 0)
(-0.000397831 -0.00536642 0)
(-0.0032814 -0.0119596 0)
(-0.00771716 -0.0151428 0)
(-0.012934 -0.0154573 0)
(-0.0181698 -0.013638 0)
(-0.022909 -0.0106911 0)
(-0.0268758 -0.00761545 0)
(-0.03001 -0.0051079 0)
(-0.0324062 -0.00345504 0)
(-0.0342248 -0.00258871 0)
(-0.0356031 -0.00220237 0)
(-0.0365835 -0.00185467 0)
(-0.0370688 -0.00103682 0)
(-0.0367929 0.00079003 0)
(-0.0353239 0.00414292 0)
(-0.0321721 0.00929405 0)
(-0.0268748 0.0160023 0)
(-0.0193253 0.0229388 0)
(-0.0103804 0.0264254 0)
(-0.00174953 0.0179766 0)
(-0.000526709 -0.00134328 0)
(-0.00327046 -0.0028249 0)
(-0.00758257 -0.00344211 0)
(-0.0124315 -0.00332456 0)
(-0.0169198 -0.00267546 0)
(-0.020521 -0.0017958 0)
(-0.0230814 -0.000974502 0)
(-0.0247314 -0.000392668 0)
(-0.0257506 -0.000108339 0)
(-0.0264382 -9.00964e-05 0)
(-0.0270238 -0.000256005 0)
(-0.0276173 -0.000499194 0)
(-0.0281784 -0.000696351 0)
(-0.0284808 -0.00069313 0)
(-0.0281456 -0.000269741 0)
(-0.0265957 0.000768689 0)
(-0.0231618 0.00251079 0)
(-0.0174357 0.00473865 0)
(-0.00997906 0.00646458 0)
(-0.0023621 0.00516918 0)
)
;

boundaryField
{
    leftWall
    {
        type            fixedValue;
        value           uniform (0 0 0);
    }
    rightWall
    {
        type            fixedValue;
        value           uniform (0 0 0);
    }
    topWall
    {
        type            fixedValue;
        value           uniform (0 0 0);
    }
    bottomWall
    {
        type            fixedValue;
        value           uniform (0 0 0);
    }
    frontAndBackPlanes
    {
        type            empty;
    }
}


// ************************************************************************* //
