/*--------------------------------*- C++ -*----------------------------------*\
| =========                 |                                                 |
| \\      /  F ield         | OpenFOAM: The Open Source CFD Toolbox           |
|  \\    /   O peration     | Version:  2506                                  |
|   \\  /    A nd           | Website:  www.openfoam.com                      |
|    \\/     M anipulation  |                                                 |
\*---------------------------------------------------------------------------*/
FoamFile
{
    version     2.0;
    format      ascii;
    arch        "LSB;label=32;scalar=64";
    class       surfaceScalarField;
    location    "134";
    object      phi;
}
// * * * * * * * * * * * * * * * * * * * * * * * * * * * * * * * * * * * * * //

dimensions      [1 0 -1 0 0 0 0];

oriented        oriented;

internalField   nonuniform List<scalar> 
370
(
0.000364614
-0.000393729
0.00093854
-0.000573875
0.00142935
-0.000490738
0.00175977
-0.000330329
0.00194212
-0.000182247
0.00202185
-7.96119e-05
0.00204805
-2.60782e-05
0.00206055
-1.23702e-05
0.00208747
-2.6783e-05
0.0021476
-5.99933e-05
0.0022521
-0.00010435
0.00240677
-0.000154513
0.00261157
-0.00020463
0.00285479
-0.000243055
0.0030996
-0.000244641
0.00325857
-0.00015879
0.00316626
9.24901e-05
0.00261271
0.000553726
0.00140885
0.00120403
0.00140893
0.000477245
-0.000870947
0.00127014
-0.0013667
0.00201781
-0.0012383
0.00258571
-0.000898117
0.00296216
-0.000558564
0.00318796
-0.000305271
0.00331726
-0.000155246
0.00339908
-9.40491e-05
0.00346971
-9.72663e-05
0.00355109
-0.000141224
0.00365329
-0.00020639
0.00377489
-0.000275955
0.00390059
-0.000330168
0.00399462
-0.000336924
0.00399012
-0.000239966
0.00378224
4.92605e-05
0.00323678
0.000638129
0.0022304
0.00156029
0.000896479
0.0025381
0.00230548
0.000446608
-0.00131752
0.00116811
-0.0020881
0.00184623
-0.00191629
0.00236679
-0.00141853
0.00272279
-0.0009144
0.00294966
-0.000531978
0.00309091
-0.000296332
0.00318308
-0.000186051
0.00325119
-0.000165209
0.00330897
-0.000198834
0.00336017
-0.000257427
0.00339867
-0.000314287
0.00340597
-0.000337288
0.00334632
-0.000277103
0.003163
-5.64749e-05
0.00278612
0.000426324
0.00216557
0.00125886
0.0013166
0.00240944
0.00044169
0.00341316
0.00274724
0.000372163
-0.00168964
0.000932945
-0.00264878
0.00142309
-0.00240628
0.00177246
-0.00176774
0.00199629
-0.00113804
0.00213343
-0.000668935
0.00221869
-0.000381404
0.00227468
-0.000241865
0.00231302
-0.000203368
0.00233787
-0.000223504
0.00234849
-0.00026786
0.00233903
-0.000304649
0.00229574
-0.000293821
0.00219321
-0.00017439
0.00199441
0.000142514
0.0016652
0.000755725
0.00119288
0.00173137
0.000633091
0.00296941
0.000156057
0.00389034
0.00290336
0.000278071
-0.00196767
0.000632003
-0.00300259
0.00088263
-0.00265674
0.00101719
-0.00190211
0.0010766
-0.00119726
0.00110126
-0.000693403
0.00111441
-0.00039437
0.00112374
-0.000251001
0.00112886
-0.000208303
0.00112732
-0.00022178
0.00111676
-0.000257122
0.00109345
-0.000281159
0.00104871
-0.000248888
0.000966099
-9.15982e-05
0.000824031
0.000284772
0.000608895
0.000971053
0.000336012
0.00200444
7.67431e-05
0.00322886
-5.0761e-05
0.00401798
0.00285266
0.000161889
-0.00212951
0.000261836
-0.00310241
0.000236194
-0.00263093
0.000140375
-0.0018061
3.43857e-05
-0.00109107
-5.17938e-05
-0.000607035
-0.000112907
-0.000333072
-0.000155696
-0.00020803
-0.000188471
-0.000175347
-0.000216711
-0.000193361
-0.000243542
-0.000230111
-0.000272485
-0.000252038
-0.000309675
-0.000211516
-0.0003631
-3.7988e-05
-0.000433437
0.000355299
-0.000507196
0.00104501
-0.000541883
0.00203932
-0.000468355
0.00315551
-0.000243874
0.00379363
0.00260884
-1.39499e-05
-0.00211551
-0.000233034
-0.00288319
-0.000573384
-0.0022904
-0.000911646
-0.00146765
-0.00118448
-0.000818053
-0.0013823
-0.000409036
-0.00152096
-0.000194237
-0.00161977
-0.00010905
-0.00169319
-0.000101751
-0.00175053
-0.000135847
-0.00179754
-0.000182926
-0.0018379
-0.00021151
-0.00187158
-0.000177655
-0.00188995
-1.94383e-05
-0.00186394
0.000329465
-0.00174996
0.000931212
-0.00148855
0.00177808
-0.00103455
0.00270167
-0.000438187
0.00319739
0.0021707
-0.000283779
-0.00183167
-0.000929349
-0.00223748
-0.00162273
-0.00159685
-0.00219324
-0.00089696
-0.00260284
-0.000408277
-0.00287748
-0.000134229
-0.00305785
-1.36967e-05
-0.00317887
1.21323e-05
-0.00326661
-1.3849e-05
-0.00333746
-6.48327e-05
-0.0033998
-0.000120426
-0.00345281
-0.000158344
-0.00348266
-0.000147641
-0.00345542
-4.65276e-05
-0.00331779
0.000192
-0.0029983
0.000611874
-0.00242994
0.00120987
-0.00159676
0.00186862
-0.000634659
0.0022354
0.00153608
-0.000709306
-0.0011223
-0.00184822
-0.00109843
-0.0028108
-0.000634104
-0.00344961
-0.000257975
-0.00381307
-4.46497e-05
-0.00400315
5.60093e-05
-0.0040973
8.06079e-05
-0.00414935
6.43392e-05
-0.00419278
2.97238e-05
-0.00424586
-1.16157e-05
-0.00431417
-5.19775e-05
-0.00438871
-8.36674e-05
-0.00444236
-9.38679e-05
-0.00442372
-6.50377e-05
-0.00425849
2.69e-05
-0.00384724
0.000200736
-0.00310682
0.000469573
-0.00202635
0.000788255
-0.000791708
0.00100084
0.000744405
-0.00112223
-0.00222052
-0.00285446
-0.00311227
-0.00315676
-0.00310059
-0.00301984
-0.00295536
-0.0029255
-0.00293699
-0.00298885
-0.00307241
-0.00316617
-0.00323111
-0.00320412
-0.0030033
-0.00253364
-0.00174532
-0.000744427
)
;

boundaryField
{
    leftWall
    {
        type            calculated;
        value           nonuniform List<scalar> 10(0 0 0 -1.0842e-19 0 0 0 0 0 0);
    }
    rightWall
    {
        type            calculated;
        value           nonuniform List<scalar> 10(0 -2.1684e-19 0 0 0 0 -4.33681e-19 0 0 2.1684e-19);
    }
    topWall
    {
        type            calculated;
        value           uniform 0;
    }
    bottomWall
    {
        type            calculated;
        value           uniform 0;
    }
    frontAndBackPlanes
    {
        type            empty;
    }
}


// ************************************************************************* //
