/*--------------------------------*- C++ -*----------------------------------*\
| =========                 |                                                 |
| \\      /  F ield         | OpenFOAM: The Open Source CFD Toolbox           |
|  \\    /   O peration     | Version:  2506                                  |
|   \\  /    A nd           | Website:  www.openfoam.com                      |
|    \\/     M anipulation  |                                                 |
\*---------------------------------------------------------------------------*/
FoamFile
{
    version     2.0;
    format      ascii;
    arch        "LSB;label=32;scalar=64";
    class       volScalarField;
    location    "134";
    object      T;
}
// * * * * * * * * * * * * * * * * * * * * * * * * * * * * * * * * * * * * * //

dimensions      [0 0 0 1 0 0 0];

internalField   nonuniform List<scalar> 
200
(
273.168
273.2
273.223
273.239
273.25
273.257
273.263
273.268
273.272
273.277
273.281
273.286
273.291
273.296
273.302
273.312
273.337
273.398
273.547
273.87
273.179
273.23
273.265
273.286
273.298
273.304
273.307
273.309
273.311
273.314
273.317
273.321
273.324
273.328
273.331
273.337
273.358
273.417
273.571
273.895
273.194
273.271
273.324
273.354
273.369
273.375
273.376
273.376
273.375
273.375
273.376
273.377
273.378
273.377
273.376
273.38
273.398
273.458
273.616
273.927
273.209
273.312
273.384
273.424
273.442
273.448
273.447
273.444
273.441
273.439
273.437
273.436
273.433
273.428
273.423
273.423
273.44
273.504
273.664
273.956
273.223
273.354
273.442
273.49
273.51
273.514
273.511
273.506
273.501
273.497
273.494
273.49
273.484
273.476
273.468
273.466
273.486
273.556
273.716
273.982
273.238
273.395
273.499
273.551
273.57
273.571
273.567
273.561
273.557
273.554
273.55
273.546
273.538
273.528
273.521
273.523
273.549
273.621
273.77
274.004
273.256
273.44
273.553
273.606
273.623
273.624
273.622
273.62
273.619
273.619
273.617
273.614
273.609
273.602
273.599
273.605
273.632
273.699
273.827
274.025
273.278
273.485
273.603
273.656
273.676
273.683
273.687
273.691
273.695
273.699
273.702
273.704
273.704
273.702
273.703
273.711
273.735
273.79
273.891
274.049
273.301
273.526
273.648
273.705
273.731
273.746
273.757
273.767
273.776
273.784
273.793
273.8
273.807
273.814
273.82
273.83
273.851
273.891
273.963
274.076
273.318
273.548
273.669
273.728
273.759
273.778
273.792
273.806
273.819
273.833
273.846
273.86
273.874
273.889
273.905
273.922
273.945
273.977
274.027
274.1
)
;

boundaryField
{
    leftWall
    {
        type            fixedValue;
        value           uniform 273.15;
    }
    rightWall
    {
        type            customNeumannDirichletCoupledBoundary;
        refValue        nonuniform List<scalar> 10(274.131 274.132 274.134 274.136 274.137 274.139 274.141 274.142 274.144 274.145);
        refGradient     uniform 0;
        valueFraction   uniform 1;
        source          uniform 0;
        value           nonuniform List<scalar> 10(274.131 274.132 274.134 274.136 274.137 274.139 274.141 274.142 274.144 274.145);
        kappaMethod     fluidThermo;
    }
    topWall
    {
        type            zeroGradient;
    }
    bottomWall
    {
        type            zeroGradient;
    }
    frontAndBackPlanes
    {
        type            empty;
    }
}


// ************************************************************************* //
