/*--------------------------------*- C++ -*----------------------------------*\
| =========                 |                                                 |
| \\      /  F ield         | OpenFOAM: The Open Source CFD Toolbox           |
|  \\    /   O peration     | Version:  2506                                  |
|   \\  /    A nd           | Website:  www.openfoam.com                      |
|    \\/     M anipulation  |                                                 |
\*---------------------------------------------------------------------------*/
FoamFile
{
    version     2.0;
    format      ascii;
    arch        "LSB;label=32;scalar=64";
    class       volVectorField;
    location    "134";
    object      U;
}
// * * * * * * * * * * * * * * * * * * * * * * * * * * * * * * * * * * * * * //

dimensions      [0 1 -1 0 0 0 0];

internalField   nonuniform List<vector> 
200
(
(0.000557168 -0.00135145 0)
(0.0027234 -0.00171035 0)
(0.00498558 -0.0012491 0)
(0.00676047 -0.000661195 0)
(0.00783028 -0.000211115 0)
(0.00834439 4.65631e-05 0)
(0.00852724 0.000137628 0)
(0.00857647 0.000110026 0)
(0.00863656 7.94497e-06 0)
(0.00880428 -0.000138376 0)
(0.00914046 -0.000315074 0)
(0.00968073 -0.00051917 0)
(0.0104412 -0.000747825 0)
(0.0114077 -0.00098073 0)
(0.0124949 -0.0011494 0)
(0.013451 -0.00108341 0)
(0.0137294 -0.000436182 0)
(0.0124681 0.00129088 0)
(0.00882403 0.00414244 0)
(0.00263385 0.00559813 0)
(0.000572701 -0.0052871 0)
(0.00363202 -0.00811474 0)
(0.00694024 -0.00718675 0)
(0.00975646 -0.00504469 0)
(0.0117366 -0.00296797 0)
(0.0129585 -0.00146418 0)
(0.0136514 -0.000622882 0)
(0.0140495 -0.000344845 0)
(0.0143374 -0.000474418 0)
(0.0146375 -0.00086636 0)
(0.015016 -0.00140883 0)
(0.0154913 -0.00201304 0)
(0.0160321 -0.00257546 0)
(0.0165397 -0.00291212 0)
(0.016812 -0.00266509 0)
(0.016492 -0.0012004 0)
(0.0150123 0.00238048 0)
(0.0117718 0.00869039 0)
(0.00677708 0.0161977 0)
(0.0011415 0.0161096 0)
(0.000530496 -0.00921595 0)
(0.00336729 -0.0146384 0)
(0.00636739 -0.0134497 0)
(0.00892984 -0.00994016 0)
(0.010769 -0.00636352 0)
(0.0119579 -0.00364375 0)
(0.012688 -0.0019789 0)
(0.0131425 -0.00123106 0)
(0.0134552 -0.0011506 0)
(0.0137073 -0.00148826 0)
(0.0139348 -0.00203229 0)
(0.0141334 -0.00259312 0)
(0.0142548 -0.00294542 0)
(0.0141909 -0.00273656 0)
(0.0137501 -0.00138498 0)
(0.01263 0.00195028 0)
(0.0105642 0.0080848 0)
(0.00742029 0.0170388 0)
(0.00363315 0.0255679 0)
(0.000408425 0.0216545 0)
(0.000457096 -0.0126794 0)
(0.00275775 -0.0201198 0)
(0.00500121 -0.018489 0)
(0.00678706 -0.0137309 0)
(0.00798025 -0.00891969 0)
(0.00870728 -0.005269 0)
(0.00914303 -0.00300111 0)
(0.00941767 -0.00190045 0)
(0.00960368 -0.00162147 0)
(0.00973188 -0.00183312 0)
(0.00980812 -0.00225841 0)
(0.00981964 -0.0026435 0)
(0.00972863 -0.00267794 0)
(0.00945609 -0.00189028 0)
(0.00885801 0.000428576 0)
(0.00777458 0.00512838 0)
(0.00608399 0.0128605 0)
(0.00383303 0.023047 0)
(0.00148873 0.0312085 0)
(4.34765e-05 0.0240675 0)
(0.000370167 -0.0154265 0)
(0.00197833 -0.0240119 0)
(0.00325097 -0.021659 0)
(0.00405168 -0.015805 0)
(0.00443623 -0.010129 0)
(0.0045866 -0.00595554 0)
(0.00464801 -0.00341725 0)
(0.00468734 -0.00217613 0)
(0.00471607 -0.00180036 0)
(0.00472464 -0.0019168 0)
(0.00470204 -0.0022301 0)
(0.00463714 -0.00246321 0)
(0.00450675 -0.00225487 0)
(0.00425935 -0.00105326 0)
(0.00379773 0.00191988 0)
(0.0030502 0.00747326 0)
(0.00199856 0.016048 0)
(0.000805524 0.0265363 0)
(-0.000127291 0.0337518 0)
(-0.00018068 0.0244679 0)
(0.000267294 -0.0173165 0)
(0.00100788 -0.0260181 0)
(0.00112062 -0.0226995 0)
(0.000821248 -0.0160167 0)
(0.000364582 -0.00993828 0)
(-5.45717e-05 -0.00568167 0)
(-0.000362974 -0.00320322 0)
(-0.000574457 -0.00203223 0)
(-0.000726658 -0.00168642 0)
(-0.000850055 -0.00179608 0)
(-0.000961995 -0.00207979 0)
(-0.00107517 -0.00225384 0)
(-0.00120982 -0.0019202 0)
(-0.00139737 -0.000478743 0)
(-0.00167144 0.00285527 0)
(-0.00199801 0.00878528 0)
(-0.00225877 0.0174736 0)
(-0.00221278 0.0274239 0)
(-0.00162007 0.0333846 0)
(-0.000363548 0.0232391 0)
(0.000130586 -0.0180226 0)
(-0.000323799 -0.0256706 0)
(-0.00164241 -0.0212443 0)
(-0.00314583 -0.0142028 0)
(-0.00445344 -0.00833211 0)
(-0.00543604 -0.00447659 0)
(-0.00612507 -0.00235406 0)
(-0.00660587 -0.00142628 0)
(-0.00695409 -0.00122947 0)
(-0.00722006 -0.00142933 0)
(-0.0074346 -0.00176549 0)
(-0.00761867 -0.00195402 0)
(-0.00778444 -0.00159453 0)
(-0.00791838 -0.000121163 0)
(-0.00794197 0.00314138 0)
(-0.00768937 0.00873799 0)
(-0.00692222 0.0166375 0)
(-0.00540863 0.0253015 0)
(-0.00318011 0.0300027 0)
(-0.000573376 0.0203902 0)
(-0.000211994 -0.0169027 0)
(-0.00242717 -0.0221425 0)
(-0.00539322 -0.0168823 0)
(-0.00812641 -0.0102699 0)
(-0.0101878 -0.00530699 0)
(-0.0115906 -0.00232814 0)
(-0.0125063 -0.000867139 0)
(-0.0131081 -0.000382941 0)
(-0.0135245 -0.000467515 0)
(-0.0138457 -0.000840379 0)
(-0.014123 -0.00128296 0)
(-0.0143758 -0.00155485 0)
(-0.0145793 -0.00132711 0)
(-0.0146403 -0.000160229 0)
(-0.0143552 0.00244655 0)
(-0.0134477 0.00689959 0)
(-0.0115891 0.0131221 0)
(-0.00858871 0.0198573 0)
(-0.00474109 0.023421 0)
(-0.000793576 0.0158593 0)
(-0.000863812 -0.0128337 0)
(-0.0054449 -0.014592 0)
(-0.00997774 -0.00949697 0)
(-0.0133791 -0.00455002 0)
(-0.0154354 -0.00139949 0)
(-0.016518 0.000150044 0)
(-0.0170469 0.000659655 0)
(-0.0173103 0.000589693 0)
(-0.0174882 0.000228575 0)
(-0.0176819 -0.000255398 0)
(-0.0179404 -0.0007393 0)
(-0.0182613 -0.00108975 0)
(-0.0185746 -0.00112259 0)
(-0.0187222 -0.000585643 0)
(-0.0184231 0.000828457 0)
(-0.0172786 0.00341787 0)
(-0.0148632 0.00719437 0)
(-0.0109543 0.0114462 0)
(-0.0059791 0.0139584 0)
(-0.00100427 0.00976692 0)
(-0.00206189 -0.00439701 0)
(-0.00726077 -0.00377148 0)
(-0.0109048 -0.00168116 0)
(-0.0127574 -0.000234812 0)
(-0.0133043 0.000430831 0)
(-0.0131937 0.00060465 0)
(-0.0128516 0.000544541 0)
(-0.0125171 0.00039486 0)
(-0.0123058 0.000218692 0)
(-0.0122648 3.72641e-05 0)
(-0.0124054 -0.000139717 0)
(-0.0127079 -0.000299015 0)
(-0.0131136 -0.00041525 0)
(-0.0134989 -0.000440928 0)
(-0.0136468 -0.000294991 0)
(-0.0132349 0.000149378 0)
(-0.0118401 0.000992783 0)
(-0.00912891 0.00217945 0)
(-0.00531607 0.00320968 0)
(-0.0012553 0.00269443 0)
)
;

boundaryField
{
    leftWall
    {
        type            fixedValue;
        value           uniform (0 0 0);
    }
    rightWall
    {
        type            fixedValue;
        value           uniform (0 0 0);
    }
    topWall
    {
        type            fixedValue;
        value           uniform (0 0 0);
    }
    bottomWall
    {
        type            fixedValue;
        value           uniform (0 0 0);
    }
    frontAndBackPlanes
    {
        type            empty;
    }
}


// ************************************************************************* //
