/*--------------------------------*- C++ -*----------------------------------*\
| =========                 |                                                 |
| \\      /  F ield         | OpenFOAM: The Open Source CFD Toolbox           |
|  \\    /   O peration     | Version:  2506                                  |
|   \\  /    A nd           | Website:  www.openfoam.com                      |
|    \\/     M anipulation  |                                                 |
\*---------------------------------------------------------------------------*/
FoamFile
{
    version     2.0;
    format      ascii;
    arch        "LSB;label=32;scalar=64";
    class       volScalarField;
    location    "57.4";
    object      p_rgh;
}
// * * * * * * * * * * * * * * * * * * * * * * * * * * * * * * * * * * * * * //

dimensions      [1 -1 -2 0 0 0 0];

internalField   nonuniform List<scalar> 
200
(
100000
100000
100000
100000
100000
100000
100000
100000
100000
99999.9
99999.9
99999.9
99999.8
99999.8
99999.7
99999.6
99999.4
99999.2
99998.8
99998.1
100000
100000
100000
100000
100000
100000
99999.9
99999.9
99999.9
99999.9
99999.9
99999.8
99999.8
99999.8
99999.7
99999.7
99999.5
99999.2
99998.5
99997
100000
100000
99999.9
99999.9
99999.8
99999.8
99999.8
99999.7
99999.7
99999.7
99999.7
99999.7
99999.7
99999.7
99999.7
99999.6
99999.5
99999
99997.8
99995.3
100000
100000
99999.7
99999.6
99999.5
99999.4
99999.4
99999.4
99999.4
99999.4
99999.4
99999.4
99999.5
99999.5
99999.6
99999.5
99999.3
99998.6
99996.8
99993.4
100000
99999.9
99999.4
99999.1
99998.9
99998.9
99998.9
99998.9
99998.9
99998.9
99998.9
99999
99999.1
99999.2
99999.3
99999.3
99999
99998
99995.6
99991.4
100001
99999.7
99998.9
99998.5
99998.2
99998.1
99998.1
99998.1
99998.2
99998.2
99998.2
99998.3
99998.5
99998.7
99998.9
99998.8
99998.3
99997
99994.1
99989.4
100001
99999.5
99998.3
99997.6
99997.3
99997.2
99997.2
99997.1
99997.1
99997.1
99997.1
99997.2
99997.3
99997.5
99997.6
99997.5
99996.9
99995.4
99992.4
99987.6
100001
99999.1
99997.6
99996.7
99996.2
99995.9
99995.8
99995.6
99995.5
99995.4
99995.3
99995.2
99995.3
99995.3
99995.3
99995.2
99994.6
99993.1
99990.3
99985.8
100002
99998.7
99996.7
99995.5
99994.8
99994.4
99994
99993.7
99993.4
99993.1
99992.8
99992.6
99992.4
99992.2
99992.1
99991.9
99991.3
99990.2
99987.9
99984.1
100002
99998.4
99996.2
99994.8
99994
99993.3
99992.8
99992.3
99991.9
99991.4
99991
99990.5
99990.1
99989.6
99989.2
99988.8
99988.2
99987.2
99985.5
99982.8
)
;

boundaryField
{
    leftWall
    {
        type            fixedFluxPressure;
        gradient        nonuniform List<scalar> 10(0.0841801 0.707589 2.60397 6.42017 12.5651 21.3343 33.1939 49.6853 70.9431 90.2334);
        value           nonuniform List<scalar> 10(100000 100000 100000 100000 100001 100001 100002 100003 100003 100004);
    }
    rightWall
    {
        type            fixedFluxPressure;
        gradient        nonuniform List<scalar> 10(-17.2082 -47.7285 -71.4563 -89.4683 -101.951 -110.683 -114.599 -110.49 -94.9182 -71.0026);
        value           nonuniform List<scalar> 10(99997.7 99995.8 99993.5 99991.2 99988.9 99986.7 99984.7 99983 99981.8 99981);
    }
    topWall
    {
        type            fixedFluxPressure;
        gradient        uniform 0;
        value           nonuniform List<scalar> 
20
(
100000
100000
100000
100000
100000
100000
100000
100000
100000
99999.9
99999.9
99999.9
99999.8
99999.8
99999.7
99999.6
99999.4
99999.2
99998.8
99998.1
)
;
    }
    bottomWall
    {
        type            fixedFluxPressure;
        gradient        uniform 0;
        value           nonuniform List<scalar> 
20
(
100002
99998.4
99996.2
99994.8
99994
99993.3
99992.8
99992.3
99991.9
99991.4
99991
99990.5
99990.1
99989.6
99989.2
99988.8
99988.2
99987.2
99985.5
99982.8
)
;
    }
    frontAndBackPlanes
    {
        type            empty;
    }
}


// ************************************************************************* //
