/*--------------------------------*- C++ -*----------------------------------*\
| =========                 |                                                 |
| \\      /  F ield         | OpenFOAM: The Open Source CFD Toolbox           |
|  \\    /   O peration     | Version:  2506                                  |
|   \\  /    A nd           | Website:  www.openfoam.com                      |
|    \\/     M anipulation  |                                                 |
\*---------------------------------------------------------------------------*/
FoamFile
{
    version     2.0;
    format      ascii;
    arch        "LSB;label=32;scalar=64";
    class       volScalarField;
    location    "38";
    object      p_rgh;
}
// * * * * * * * * * * * * * * * * * * * * * * * * * * * * * * * * * * * * * //

dimensions      [1 -1 -2 0 0 0 0];

internalField   nonuniform List<scalar> 
200
(
100000
100000
100000
100000
100000
100000
100000
100000
100000
100000
100000
100000
99999.9
99999.9
99999.8
99999.7
99999.5
99999.2
99998.9
99998.2
100000
100000
100000
100000
100000
100000
100000
100000
100000
100000
100000
100000
99999.9
99999.9
99999.8
99999.8
99999.6
99999.3
99998.6
99997
100000
100000
100000
100000
100000
100000
100000
100000
100000
100000
99999.9
99999.9
99999.9
99999.9
99999.9
99999.8
99999.7
99999.2
99998
99995.3
100000
100000
100000
100000
99999.9
99999.9
99999.8
99999.8
99999.8
99999.8
99999.8
99999.8
99999.9
99999.9
99999.9
99999.8
99999.6
99998.9
99997
99993.4
100000
100000
100000
99999.8
99999.7
99999.6
99999.5
99999.5
99999.5
99999.5
99999.5
99999.6
99999.7
99999.8
99999.8
99999.8
99999.4
99998.3
99995.8
99991.2
100000
100000
99999.8
99999.5
99999.2
99999
99998.9
99998.9
99998.9
99999
99999
99999.2
99999.3
99999.5
99999.6
99999.5
99998.9
99997.4
99994.3
99989.1
100001
100000
99999.5
99998.9
99998.4
99998.1
99998
99997.9
99998
99998
99998.1
99998.3
99998.4
99998.6
99998.6
99998.4
99997.6
99995.8
99992.4
99987
100001
100000
99999
99998
99997.3
99996.9
99996.6
99996.5
99996.3
99996.3
99996.2
99996.2
99996.3
99996.3
99996.3
99996
99995.2
99993.5
99990.3
99985
100001
99999.8
99998.3
99997
99995.9
99995.2
99994.6
99994.2
99993.8
99993.5
99993.3
99993.1
99992.9
99992.8
99992.6
99992.4
99991.7
99990.3
99987.6
99983.2
100002
99999.8
99998.1
99996.5
99995.2
99994.1
99993.3
99992.6
99992
99991.4
99990.9
99990.4
99989.9
99989.5
99989
99988.6
99987.9
99986.8
99984.9
99981.6
)
;

boundaryField
{
    leftWall
    {
        type            fixedFluxPressure;
        gradient        nonuniform List<scalar> 10(-0.01805 0.00196529 0.207034 0.831716 2.22411 4.82484 9.13825 15.9583 25.1379 31.1737);
        value           nonuniform List<scalar> 10(100000 100000 100000 100000 100000 100001 100001 100001 100002 100002);
    }
    rightWall
    {
        type            fixedFluxPressure;
        gradient        nonuniform List<scalar> 10(-17.6991 -50.079 -76.7346 -98.2399 -114.055 -124.4 -130.417 -128.065 -112.599 -85.5209);
        value           nonuniform List<scalar> 10(99997.8 99995.8 99993.4 99990.9 99988.4 99985.9 99983.7 99981.8 99980.3 99979.5);
    }
    topWall
    {
        type            fixedFluxPressure;
        gradient        uniform 0;
        value           nonuniform List<scalar> 
20
(
100000
100000
100000
100000
100000
100000
100000
100000
100000
100000
100000
100000
99999.9
99999.9
99999.8
99999.7
99999.5
99999.2
99998.9
99998.2
)
;
    }
    bottomWall
    {
        type            fixedFluxPressure;
        gradient        uniform 0;
        value           nonuniform List<scalar> 
20
(
100002
99999.8
99998.1
99996.5
99995.2
99994.1
99993.3
99992.6
99992
99991.4
99990.9
99990.4
99989.9
99989.5
99989
99988.6
99987.9
99986.8
99984.9
99981.6
)
;
    }
    frontAndBackPlanes
    {
        type            empty;
    }
}


// ************************************************************************* //
