/*--------------------------------*- C++ -*----------------------------------*\
| =========                 |                                                 |
| \\      /  F ield         | OpenFOAM: The Open Source CFD Toolbox           |
|  \\    /   O peration     | Version:  2506                                  |
|   \\  /    A nd           | Website:  www.openfoam.com                      |
|    \\/     M anipulation  |                                                 |
\*---------------------------------------------------------------------------*/
FoamFile
{
    version     2.0;
    format      ascii;
    arch        "LSB;label=32;scalar=64";
    class       volScalarField;
    location    "38";
    object      T;
}
// * * * * * * * * * * * * * * * * * * * * * * * * * * * * * * * * * * * * * //

dimensions      [0 0 0 1 0 0 0];

internalField   nonuniform List<scalar> 
200
(
273.15
273.149
273.148
273.148
273.148
273.147
273.147
273.147
273.146
273.146
273.146
273.146
273.147
273.148
273.15
273.158
273.181
273.243
273.408
273.793
273.15
273.15
273.15
273.151
273.151
273.151
273.151
273.151
273.151
273.15
273.15
273.149
273.149
273.149
273.15
273.155
273.175
273.237
273.412
273.813
273.151
273.153
273.155
273.157
273.159
273.16
273.161
273.161
273.161
273.16
273.159
273.157
273.156
273.154
273.153
273.158
273.179
273.248
273.437
273.84
273.152
273.157
273.163
273.169
273.175
273.178
273.18
273.18
273.18
273.178
273.176
273.172
273.168
273.163
273.16
273.164
273.189
273.267
273.468
273.866
273.155
273.165
273.178
273.19
273.2
273.207
273.21
273.211
273.209
273.206
273.202
273.195
273.187
273.178
273.172
273.177
273.207
273.297
273.508
273.894
273.158
273.177
273.2
273.221
273.238
273.248
273.253
273.254
273.251
273.247
273.24
273.23
273.217
273.204
273.197
273.205
273.245
273.349
273.564
273.921
273.163
273.194
273.229
273.263
273.288
273.303
273.309
273.31
273.309
273.305
273.299
273.29
273.279
273.269
273.268
273.283
273.329
273.433
273.631
273.947
273.17
273.216
273.267
273.314
273.348
273.369
273.382
273.389
273.395
273.399
273.401
273.401
273.399
273.397
273.4
273.417
273.46
273.55
273.714
273.977
273.178
273.239
273.305
273.365
273.413
273.447
273.473
273.494
273.511
273.526
273.539
273.551
273.561
273.57
273.579
273.596
273.63
273.698
273.818
274.015
273.181
273.247
273.318
273.386
273.443
273.489
273.527
273.56
273.589
273.615
273.64
273.663
273.687
273.71
273.733
273.758
273.792
273.844
273.927
274.056
)
;

boundaryField
{
    leftWall
    {
        type            fixedValue;
        value           uniform 273.15;
    }
    rightWall
    {
        type            customNeumannDirichletCoupledBoundary;
        refValue        nonuniform List<scalar> 10(274.125 274.126 274.128 274.129 274.131 274.133 274.135 274.137 274.139 274.141);
        refGradient     uniform 0;
        valueFraction   uniform 1;
        source          uniform 0;
        value           nonuniform List<scalar> 10(274.125 274.126 274.128 274.129 274.131 274.133 274.135 274.137 274.139 274.141);
        kappaMethod     fluidThermo;
    }
    topWall
    {
        type            zeroGradient;
    }
    bottomWall
    {
        type            zeroGradient;
    }
    frontAndBackPlanes
    {
        type            empty;
    }
}


// ************************************************************************* //
