/*--------------------------------*- C++ -*----------------------------------*\
| =========                 |                                                 |
| \\      /  F ield         | OpenFOAM: The Open Source CFD Toolbox           |
|  \\    /   O peration     | Version:  2506                                  |
|   \\  /    A nd           | Website:  www.openfoam.com                      |
|    \\/     M anipulation  |                                                 |
\*---------------------------------------------------------------------------*/
FoamFile
{
    version     2.0;
    format      ascii;
    arch        "LSB;label=32;scalar=64";
    class       surfaceScalarField;
    location    "56.4";
    object      phi;
}
// * * * * * * * * * * * * * * * * * * * * * * * * * * * * * * * * * * * * * //

dimensions      [1 0 -1 0 0 0 0];

oriented        oriented;

internalField   nonuniform List<scalar> 
370
(
4.39492e-05
-0.000120026
0.000261882
-0.000217879
0.000499515
-0.000237551
0.000718274
-0.000218659
0.000904474
-0.000186089
0.00106169
-0.000157101
0.00120228
-0.000140466
0.00134159
-0.000139185
0.0014951
-0.000153382
0.00167728
-0.00018204
0.0019009
-0.000223483
0.00217565
-0.000274594
0.00250399
-0.000328185
0.00287313
-0.000368986
0.00324052
-0.000367225
0.00350916
-0.000268471
0.00347927
3.00522e-05
0.00292904
0.000550389
0.00161699
0.0013122
0.00161708
0.000196564
-0.000316553
0.000589763
-0.000610971
0.00103186
-0.000679492
0.00144442
-0.000631039
0.0018008
-0.000542269
0.00210265
-0.000458749
0.00236487
-0.000402476
0.00260642
-0.00038053
0.00284522
-0.000391966
0.00309528
-0.000431884
0.00336457
-0.000492549
0.0036517
-0.000561494
0.0039402
-0.000616442
0.00418869
-0.000617231
0.0043176
-0.000495885
0.00419944
-0.000150065
0.00368388
0.00054586
0.00259401
0.00164049
0.00106843
0.00283799
0.00268563
0.000262644
-0.000579132
0.000740382
-0.00108853
0.00125255
-0.0011914
0.00171287
-0.00109105
0.00209582
-0.000924888
0.00240675
-0.000769357
0.00266284
-0.000658234
0.00288266
-0.000600026
0.00308139
-0.000590362
0.00326872
-0.000618887
0.00344756
-0.000671054
0.00361153
-0.000725114
0.00374003
-0.00074459
0.00379072
-0.000667569
0.00369256
-0.000397369
0.00334903
0.000193812
0.00267903
0.0012162
0.00168434
0.00263549
0.000596233
0.00392635
0.00328199
0.000286074
-0.000865113
0.000775968
-0.00157816
0.00126694
-0.00168201
0.00167701
-0.0015007
0.00199179
-0.00123923
0.00222599
-0.00100312
0.00240145
-0.000833258
0.00253718
-0.000735316
0.00264633
-0.000699081
0.00273631
-0.000708442
0.00280921
-0.000743509
0.00286056
-0.000776016
0.00287555
-0.000759122
0.00282295
-0.000614509
0.00265111
-0.000225078
0.00229661
0.000548755
0.00172549
0.00178775
0.000988066
0.0033733
0.000293262
0.00462147
0.0035754
0.000278227
-0.00114322
0.000710875
-0.00201049
0.00109972
-0.0020704
0.00138341
-0.00178389
0.00156752
-0.00142281
0.00167876
-0.00111383
0.00174281
-0.000896792
0.00177748
-0.000769487
0.0017932
-0.000714291
0.00179549
-0.000710229
0.00178667
-0.000734164
0.00176499
-0.000753812
0.00172149
-0.000715081
0.00163571
-0.000528181
0.00147375
-6.25683e-05
0.00119725
0.000825773
0.000804315
0.00218118
0.000368551
0.00380951
5.27718e-05
0.0049376
0.00362833
0.000227263
-0.00137035
0.000515669
-0.00229853
0.000710642
-0.00226487
0.000792765
-0.00186544
0.000795501
-0.00142497
0.000754655
-0.00107241
0.000693971
-0.000835551
0.000625622
-0.000700587
0.000555072
-0.000643189
0.00048495
-0.000639548
0.000416012
-0.000664655
0.000345573
-0.000682788
0.000265356
-0.000634263
0.000161843
-0.000424054
2.29094e-05
7.69862e-05
-0.00013893
0.000988213
-0.000283782
0.00232659
-0.000332227
0.00385844
-0.000210432
0.00481617
0.00341804
0.000104931
-0.00147512
0.000121644
-0.00231482
6.61774e-06
-0.00214928
-0.000187436
-0.00167079
-0.000406595
-0.00120521
-0.000618403
-0.000860023
-0.000810816
-0.000642564
-0.000982748
-0.000528084
-0.0011367
-0.000488659
-0.00127578
-0.000499893
-0.0014037
-0.000536151
-0.00152526
-0.000560622
-0.00164417
-0.000514741
-0.00175524
-0.000312365
-0.00182883
0.000151211
-0.00180005
0.000960039
-0.00159016
0.00211726
-0.0011405
0.00340927
-0.000498579
0.00417461
0.00291961
-0.000137806
-0.00133713
-0.00054525
-0.00190692
-0.0010703
-0.00162366
-0.0015828
-0.00115768
-0.00202498
-0.000762444
-0.00238821
-0.000496218
-0.00268515
-0.000345059
-0.00293366
-0.000279015
-0.00315002
-0.000271751
-0.00334696
-0.000302399
-0.00353274
-0.000349811
-0.00370794
-0.000384865
-0.00385826
-0.000363862
-0.00394382
-0.000226231
-0.00389059
9.85433e-05
-0.00359777
0.000667773
-0.00297189
0.0014919
-0.00198556
0.00242338
-0.000802607
0.00299199
0.00211714
-0.000513201
-0.000823726
-0.00143733
-0.000982303
-0.00233935
-0.000721047
-0.00305545
-0.000440994
-0.00357637
-0.00024097
-0.00394696
-0.000125088
-0.00421989
-7.1622e-05
-0.00443937
-5.90265e-05
-0.00463795
-7.26867e-05
-0.00483699
-0.000102883
-0.00504594
-0.000140385
-0.00525751
-0.000172834
-0.00543901
-0.000181904
-0.00552314
-0.000141656
-0.00540883
-1.53222e-05
-0.00496044
0.000219826
-0.00406031
0.000592183
-0.00268328
0.00104672
-0.00106317
0.00137216
0.00105408
-0.000823498
-0.0018053
-0.00252576
-0.00296619
-0.00320663
-0.00333123
-0.00340239
-0.00346099
-0.00353326
-0.00363575
-0.00377576
-0.00394823
-0.00412978
-0.0042711
-0.0042861
-0.00406597
-0.0034735
-0.00242652
-0.00105416
)
;

boundaryField
{
    leftWall
    {
        type            calculated;
        value           nonuniform List<scalar> 10(4.23516e-22 3.38813e-21 0 0 0 0 -2.1684e-19 0 -4.33681e-19 4.33681e-19);
    }
    rightWall
    {
        type            calculated;
        value           uniform 0;
    }
    topWall
    {
        type            calculated;
        value           uniform 0;
    }
    bottomWall
    {
        type            calculated;
        value           uniform 0;
    }
    frontAndBackPlanes
    {
        type            empty;
    }
}


// ************************************************************************* //
