/*--------------------------------*- C++ -*----------------------------------*\
| =========                 |                                                 |
| \\      /  F ield         | OpenFOAM: The Open Source CFD Toolbox           |
|  \\    /   O peration     | Version:  2506                                  |
|   \\  /    A nd           | Website:  www.openfoam.com                      |
|    \\/     M anipulation  |                                                 |
\*---------------------------------------------------------------------------*/
FoamFile
{
    version     2.0;
    format      ascii;
    arch        "LSB;label=32;scalar=64";
    class       surfaceScalarField;
    location    "105";
    object      phi;
}
// * * * * * * * * * * * * * * * * * * * * * * * * * * * * * * * * * * * * * //

dimensions      [1 0 -1 0 0 0 0];

oriented        oriented;

internalField   nonuniform List<scalar> 
370
(
0.000268744
-0.000310662
0.00073603
-0.000467214
0.00114905
-0.000412913
0.00144124
-0.000292059
0.00161808
-0.000176701
0.00171393
-9.56896e-05
0.00176796
-5.38684e-05
0.00181342
-4.52823e-05
0.00187491
-6.12987e-05
0.00196928
-9.41833e-05
0.00210767
-0.000138189
0.00229676
-0.000188881
0.00253757
-0.000240606
0.00281918
-0.000281395
0.00310468
-0.000285274
0.00330542
-0.000200516
0.00324337
6.22731e-05
0.00270309
0.000540514
0.0014735
0.00122979
0.00147361
0.000400491
-0.000711116
0.00108179
-0.00114841
0.00174141
-0.00107239
0.00226016
-0.000810637
0.00262299
-0.000539358
0.00286116
-0.000333669
0.00301911
-0.000211628
0.00313803
-0.000163998
0.003249
-0.000172066
0.00337183
-0.000216807
0.00351581
-0.000281963
0.00367966
-0.00035252
0.00384843
-0.000409153
0.00398607
-0.000418812
0.00402351
-0.000322484
0.00385065
-2.74243e-05
0.00332788
0.000585279
0.0023131
0.00155553
0.000937757
0.00260533
0.00241146
0.000401822
-0.00111289
0.00106291
-0.00180937
0.00169867
-0.00170797
0.00220173
-0.00131348
0.00256063
-0.00089803
0.00280372
-0.000576532
0.00296841
-0.000376082
0.0030871
-0.000282458
0.00318257
-0.000267302
0.00326764
-0.000301643
0.00334596
-0.000360043
0.00341163
-0.000417956
0.00344629
-0.000443572
0.00341364
-0.000385918
0.0032549
-0.000163491
0.0028917
0.000336022
0.00226767
0.00120956
0.00139231
0.00243114
0.000473506
0.00352433
0.00288507
0.000356268
-0.0014691
0.00090755
-0.00236049
0.00140445
-0.00220465
0.00177256
-0.00168134
0.00201967
-0.00114488
0.00217911
-0.000735708
0.00228306
-0.000479768
0.00235388
-0.000353014
0.00240403
-0.000317194
0.0024388
-0.000336159
0.00245842
-0.000379403
0.00245777
-0.000417046
0.00242336
-0.00040891
0.00232883
-0.000291117
0.00213397
3.16331e-05
0.00179817
0.000672092
0.00130466
0.00170334
0.000706889
0.00302916
0.000183286
0.00404814
0.00306844
0.00028545
-0.00175449
0.000670217
-0.00274509
0.000964119
-0.00249832
0.00114114
-0.00185809
0.00123392
-0.00123739
0.00128007
-0.000781571
0.00130394
-0.000503363
0.00131628
-0.000365088
0.00131974
-0.000320388
0.00131405
-0.000330196
0.00129825
-0.000363339
0.00126944
-0.000387971
0.00121917
-0.000358367
0.00113001
-0.000201689
0.000976611
0.00018531
0.000742939
0.000906044
0.000439691
0.00200686
0.000138976
0.00333013
-2.9548e-05
0.00421687
0.00303898
0.000185232
-0.00193965
0.000342247
-0.00290192
0.000378102
-0.00253392
0.000330228
-0.00180994
0.00025319
-0.00116007
0.000179578
-0.000707681
0.000119288
-0.000442802
7.00631e-05
-0.000315595
2.68341e-05
-0.000276894
-1.38459e-05
-0.000289253
-5.3921e-05
-0.000323001
-9.64369e-05
-0.000345191
-0.000147959
-0.000306578
-0.000217655
-0.000131719
-0.000309259
0.000277196
-0.000410014
0.00100708
-0.000477112
0.00207424
-0.000437336
0.00329061
-0.000238642
0.00401837
0.00280041
2.04094e-05
-0.00195998
-0.000135081
-0.00274623
-0.000416114
-0.00225263
-0.000716297
-0.00150948
-0.000973058
-0.000903034
-0.00117103
-0.000509447
-0.00131932
-0.00029425
-0.00143289
-0.000201757
-0.00152381
-0.000185717
-0.00159976
-0.000213056
-0.0016658
-0.000256699
-0.00172587
-0.00028487
-0.00178112
-0.000251067
-0.00182385
-8.87209e-05
-0.00182577
0.000279388
-0.00173919
0.000920769
-0.00149938
0.0018347
-0.00105514
0.0028466
-0.000452661
0.00341607
0.00234782
-0.000246356
-0.00171354
-0.000833067
-0.00215931
-0.00148391
-0.00160153
-0.00203749
-0.000955646
-0.00245101
-0.000489249
-0.00274198
-0.000218219
-0.00294564
-9.03368e-05
-0.00309322
-5.39302e-05
-0.00320799
-7.07039e-05
-0.00330563
-0.000115187
-0.00339434
-0.000167752
-0.00347395
-0.000205025
-0.00353119
-0.000193589
-0.00353213
-8.75369e-05
-0.00341863
0.000166119
-0.00311337
0.000615743
-0.00254181
0.00126336
-0.00168226
0.00198726
-0.000673766
0.00240772
0.00167411
-0.000662126
-0.00105132
-0.00174996
-0.00107127
-0.00269775
-0.000653474
-0.00335368
-0.000299453
-0.00375459
-8.80854e-05
-0.00398089
8.32119e-06
-0.00411536
4.43725e-05
-0.00420454
3.54715e-05
-0.00428047
5.44745e-06
-0.00436452
-3.09213e-05
-0.00446195
-7.01203e-05
-0.00456504
-0.00010174
-0.00464633
-0.000112108
-0.0046518
-8.18785e-05
-0.00450224
1.67479e-05
-0.00408875
0.000202441
-0.00331935
0.000494135
-0.00217693
0.000845001
-0.000855705
0.00108662
0.000818459
-0.00105122
-0.00212228
-0.0027755
-0.0030747
-0.00316254
-0.00315399
-0.00310939
-0.00307372
-0.00306807
-0.00309881
-0.00316875
-0.00327033
-0.00338228
-0.00346401
-0.00344713
-0.00324456
-0.0027503
-0.00190519
-0.000818494
)
;

boundaryField
{
    leftWall
    {
        type            calculated;
        value           uniform 0;
    }
    rightWall
    {
        type            calculated;
        value           nonuniform List<scalar> 10(0 -2.1684e-19 0 -4.33681e-19 4.33681e-19 -4.33681e-19 -4.33681e-19 -4.33681e-19 0 0);
    }
    topWall
    {
        type            calculated;
        value           uniform 0;
    }
    bottomWall
    {
        type            calculated;
        value           uniform 0;
    }
    frontAndBackPlanes
    {
        type            empty;
    }
}


// ************************************************************************* //
