/*--------------------------------*- C++ -*----------------------------------*\
| =========                 |                                                 |
| \\      /  F ield         | OpenFOAM: The Open Source CFD Toolbox           |
|  \\    /   O peration     | Version:  2506                                  |
|   \\  /    A nd           | Website:  www.openfoam.com                      |
|    \\/     M anipulation  |                                                 |
\*---------------------------------------------------------------------------*/
FoamFile
{
    version     2.0;
    format      ascii;
    arch        "LSB;label=32;scalar=64";
    class       volVectorField;
    location    "105";
    object      U;
}
// * * * * * * * * * * * * * * * * * * * * * * * * * * * * * * * * * * * * * //

dimensions      [0 1 -1 0 0 0 0];

internalField   nonuniform List<vector> 
200
(
(0.00038049 -0.00104533 0)
(0.00208157 -0.00135234 0)
(0.00395405 -0.00101428 0)
(0.00548489 -0.000571267 0)
(0.00646453 -0.000226613 0)
(0.00700714 -2.8236e-05 0)
(0.00728868 3.80239e-05 0)
(0.0074698 6.50483e-06 0)
(0.00767343 -8.99945e-05 0)
(0.00798548 -0.0002296 0)
(0.00846343 -0.000402876 0)
(0.00914516 -0.000608643 0)
(0.0100514 -0.000844293 0)
(0.0111726 -0.00108841 0)
(0.0124265 -0.00127033 0)
(0.0135584 -0.00121612 0)
(0.0139952 -0.000564877 0)
(0.0128376 0.0012238 0)
(0.00917692 0.00423221 0)
(0.00276277 0.00586274 0)
(0.000471453 -0.00423633 0)
(0.00306331 -0.00667729 0)
(0.00594522 -0.00609305 0)
(0.0084674 -0.00446888 0)
(0.0103166 -0.00284185 0)
(0.0115422 -0.00165014 0)
(0.0123286 -0.000990459 0)
(0.0128701 -0.00079794 0)
(0.0133236 -0.000955269 0)
(0.0137961 -0.00134931 0)
(0.0143484 -0.00189009 0)
(0.0149986 -0.00250077 0)
(0.0157171 -0.00308113 0)
(0.0164059 -0.00344245 0)
(0.0168583 -0.00321313 0)
(0.0167071 -0.00173297 0)
(0.0153585 0.00195768 0)
(0.0121569 0.00856002 0)
(0.00706543 0.016567 0)
(0.00120357 0.0168282 0)
(0.000471519 -0.00765271 0)
(0.00304084 -0.012465 0)
(0.00582118 -0.0117802 0)
(0.00825487 -0.00904916 0)
(0.0100641 -0.00615811 0)
(0.011297 -0.00392172 0)
(0.0121146 -0.00254544 0)
(0.012677 -0.00194119 0)
(0.0131043 -0.00191524 0)
(0.0134713 -0.00226474 0)
(0.0138123 -0.00281037 0)
(0.0141239 -0.0033805 0)
(0.0143593 -0.00375411 0)
(0.0144102 -0.00356874 0)
(0.0140805 -0.00221438 0)
(0.01305 0.00121317 0)
(0.0110103 0.00761682 0)
(0.00780832 0.017074 0)
(0.00387229 0.0262932 0)
(0.000448661 0.0226774 0)
(0.000430823 -0.0108679 0)
(0.00265663 -0.017667 0)
(0.00489677 -0.0166847 0)
(0.00673829 -0.0128596 0)
(0.00802199 -0.00883792 0)
(0.00884696 -0.00572013 0)
(0.00937007 -0.00375289 0)
(0.00971514 -0.00278919 0)
(0.0099563 -0.00255256 0)
(0.0101291 -0.0027656 0)
(0.0102441 -0.00318658 0)
(0.0102923 -0.00357989 0)
(0.010238 -0.00363703 0)
(0.0100014 -0.00286871 0)
(0.00943921 -0.000519368 0)
(0.00834936 0.00436403 0)
(0.0066059 0.0125016 0)
(0.00423196 0.023357 0)
(0.00170444 0.0323162 0)
(7.45968e-05 0.0253398 0)
(0.000371299 -0.0135896 0)
(0.00205916 -0.0216728 0)
(0.00349556 -0.0200952 0)
(0.00448312 -0.0152223 0)
(0.00503021 -0.0103126 0)
(0.00529608 -0.00660886 0)
(0.00542346 -0.00430109 0)
(0.00548919 -0.00313988 0)
(0.00551847 -0.00276803 0)
(0.00551311 -0.00286344 0)
(0.00546972 -0.00316157 0)
(0.00538189 -0.00339972 0)
(0.00522893 -0.00321371 0)
(0.00495803 -0.00202271 0)
(0.00446287 0.00101944 0)
(0.00365608 0.00682556 0)
(0.00250478 0.0159141 0)
(0.00115841 0.0271907 0)
(2.99903e-05 0.0352447 0)
(-0.000171692 0.0259486 0)
(0.000285587 -0.0156188 0)
(0.00121094 -0.0240688 0)
(0.00158777 -0.0216042 0)
(0.00152852 -0.0158459 0)
(0.00123729 -0.0104127 0)
(0.000903229 -0.0064992 0)
(0.000616856 -0.00414398 0)
(0.000389141 -0.00297947 0)
(0.000199052 -0.00259541 0)
(2.62207e-05 -0.00266355 0)
(-0.000140245 -0.00292523 0)
(-0.000309496 -0.00310493 0)
(-0.000501462 -0.00279484 0)
(-0.000750879 -0.00135391 0)
(-0.00110244 0.00208638 0)
(-0.00153018 0.0083355 0)
(-0.00191667 0.0176268 0)
(-0.00201357 0.0284302 0)
(-0.00155453 0.0351874 0)
(-0.000365416 0.024844 0)
(0.000154512 -0.0165761 0)
(-6.39996e-05 -0.0242568 0)
(-0.00109618 -0.0206973 0)
(-0.00238632 -0.0144226 0)
(-0.00358165 -0.00900618 0)
(-0.00453575 -0.00534344 0)
(-0.00525008 -0.00325304 0)
(-0.0057854 -0.00228256 0)
(-0.00620315 -0.00202176 0)
(-0.00654552 -0.00216798 0)
(-0.00683893 -0.00247653 0)
(-0.00710358 -0.00266455 0)
(-0.00735488 -0.00231285 0)
(-0.00758484 -0.000808199 0)
(-0.00772215 0.00260234 0)
(-0.00758834 0.00854745 0)
(-0.0069264 0.0170503 0)
(-0.00548101 0.0265203 0)
(-0.00326496 0.0319119 0)
(-0.000598545 0.0219675 0)
(-0.000168234 -0.0157568 0)
(-0.00213517 -0.0212547 0)
(-0.00487756 -0.0167759 0)
(-0.00748432 -0.0107347 0)
(-0.00952259 -0.00604697 0)
(-0.0109734 -0.00313971 0)
(-0.0119767 -0.00163839 0)
(-0.0126851 -0.00107348 0)
(-0.0132158 -0.00107646 0)
(-0.0136498 -0.001389 0)
(-0.0140381 -0.00180107 0)
(-0.0144014 -0.00206494 0)
(-0.0147188 -0.00182812 0)
(-0.0148992 -0.000608496 0)
(-0.0147316 0.00215179 0)
(-0.013909 0.0069141 0)
(-0.0120759 0.0136432 0)
(-0.00901366 0.0210345 0)
(-0.00501499 0.0251313 0)
(-0.000849308 0.0172187 0)
(-0.000794723 -0.0120394 0)
(-0.00510571 -0.0141713 0)
(-0.00949924 -0.0096673 0)
(-0.0129129 -0.00505959 0)
(-0.0150916 -0.00201069 0)
(-0.0163375 -0.000427797 0)
(-0.0170323 0.000163593 0)
(-0.0174589 0.000180049 0)
(-0.0177829 -0.000111461 0)
(-0.0181085 -0.000550035 0)
(-0.0184924 -0.00101224 0)
(-0.0189345 -0.00135713 0)
(-0.0193675 -0.00138372 0)
(-0.0196289 -0.000813365 0)
(-0.019423 0.000694864 0)
(-0.0183124 0.00347476 0)
(-0.0158342 0.00757165 0)
(-0.0117327 0.0122477 0)
(-0.00644465 0.0151122 0)
(-0.00109272 0.0106923 0)
(-0.00192321 -0.00410914 0)
(-0.00687049 -0.00367824 0)
(-0.0104999 -0.00177795 0)
(-0.0124901 -0.00040434 0)
(-0.0132276 0.000266615 0)
(-0.0133137 0.000480129 0)
(-0.0131497 0.000453666 0)
(-0.0129533 0.000329835 0)
(-0.0128516 0.000171143 0)
(-0.012901 -2.14796e-06 0)
(-0.0131187 -0.000177352 0)
(-0.0134966 -0.000340351 0)
(-0.0139801 -0.000463374 0)
(-0.0144425 -0.000493863 0)
(-0.0146528 -0.000342303 0)
(-0.0142658 0.000132054 0)
(-0.012819 0.00104958 0)
(-0.00993457 0.00235943 0)
(-0.00582264 0.0035178 0)
(-0.00138795 0.00298175 0)
)
;

boundaryField
{
    leftWall
    {
        type            fixedValue;
        value           uniform (0 0 0);
    }
    rightWall
    {
        type            fixedValue;
        value           uniform (0 0 0);
    }
    topWall
    {
        type            fixedValue;
        value           uniform (0 0 0);
    }
    bottomWall
    {
        type            fixedValue;
        value           uniform (0 0 0);
    }
    frontAndBackPlanes
    {
        type            empty;
    }
}


// ************************************************************************* //
