/*--------------------------------*- C++ -*----------------------------------*\
| =========                 |                                                 |
| \\      /  F ield         | OpenFOAM: The Open Source CFD Toolbox           |
|  \\    /   O peration     | Version:  2506                                  |
|   \\  /    A nd           | Website:  www.openfoam.com                      |
|    \\/     M anipulation  |                                                 |
\*---------------------------------------------------------------------------*/
FoamFile
{
    version     2.0;
    format      ascii;
    arch        "LSB;label=32;scalar=64";
    class       volScalarField;
    location    "124.2";
    object      T;
}
// * * * * * * * * * * * * * * * * * * * * * * * * * * * * * * * * * * * * * //

dimensions      [0 0 0 1 0 0 0];

internalField   nonuniform List<scalar> 
200
(
273.166
273.195
273.216
273.231
273.241
273.247
273.253
273.257
273.261
273.264
273.268
273.272
273.277
273.281
273.287
273.297
273.321
273.383
273.534
273.863
273.177
273.224
273.256
273.276
273.287
273.292
273.295
273.297
273.299
273.301
273.304
273.307
273.31
273.313
273.316
273.322
273.342
273.402
273.558
273.889
273.191
273.263
273.312
273.341
273.355
273.361
273.362
273.361
273.361
273.361
273.361
273.362
273.363
273.362
273.361
273.364
273.382
273.443
273.603
273.921
273.205
273.303
273.371
273.409
273.427
273.432
273.431
273.429
273.426
273.423
273.422
273.42
273.417
273.412
273.407
273.406
273.423
273.488
273.651
273.951
273.219
273.343
273.428
273.474
273.493
273.497
273.494
273.489
273.485
273.481
273.478
273.474
273.468
273.459
273.451
273.45
273.469
273.54
273.704
273.977
273.234
273.384
273.484
273.534
273.553
273.555
273.551
273.545
273.541
273.538
273.535
273.53
273.522
273.512
273.504
273.506
273.532
273.606
273.758
273.999
273.251
273.428
273.538
273.59
273.607
273.609
273.607
273.605
273.604
273.604
273.602
273.599
273.593
273.587
273.583
273.589
273.617
273.685
273.817
274.021
273.273
273.473
273.589
273.641
273.661
273.668
273.672
273.677
273.681
273.685
273.689
273.69
273.69
273.689
273.689
273.697
273.722
273.778
273.882
274.045
273.296
273.514
273.633
273.69
273.717
273.732
273.743
273.753
273.763
273.772
273.781
273.789
273.796
273.803
273.809
273.82
273.841
273.882
273.956
274.073
273.312
273.535
273.655
273.714
273.745
273.764
273.78
273.794
273.808
273.822
273.836
273.85
273.865
273.88
273.897
273.914
273.938
273.971
274.022
274.098
)
;

boundaryField
{
    leftWall
    {
        type            fixedValue;
        value           uniform 273.15;
    }
    rightWall
    {
        type            customNeumannDirichletCoupledBoundary;
        refValue        nonuniform List<scalar> 10(274.13 274.131 274.133 274.135 274.137 274.139 274.14 274.142 274.144 274.145);
        refGradient     uniform 0;
        valueFraction   uniform 1;
        source          uniform 0;
        value           nonuniform List<scalar> 10(274.13 274.131 274.133 274.135 274.137 274.139 274.14 274.142 274.144 274.145);
        kappaMethod     fluidThermo;
    }
    topWall
    {
        type            zeroGradient;
    }
    bottomWall
    {
        type            zeroGradient;
    }
    frontAndBackPlanes
    {
        type            empty;
    }
}


// ************************************************************************* //
