/*--------------------------------*- C++ -*----------------------------------*\
| =========                 |                                                 |
| \\      /  F ield         | OpenFOAM: The Open Source CFD Toolbox           |
|  \\    /   O peration     | Version:  2506                                  |
|   \\  /    A nd           | Website:  www.openfoam.com                      |
|    \\/     M anipulation  |                                                 |
\*---------------------------------------------------------------------------*/
FoamFile
{
    version     2.0;
    format      ascii;
    arch        "LSB;label=32;scalar=64";
    class       surfaceScalarField;
    location    "106";
    object      phi;
}
// * * * * * * * * * * * * * * * * * * * * * * * * * * * * * * * * * * * * * //

dimensions      [1 0 -1 0 0 0 0];

oriented        oriented;

internalField   nonuniform List<scalar> 
370
(
0.000272605
-0.000314002
0.000744175
-0.000471499
0.00116028
-0.000416003
0.00145393
-0.000293518
0.00163089
-0.000176817
0.00172597
-9.4926e-05
0.00177877
-5.26362e-05
0.00182281
-4.38602e-05
0.00188284
-5.98465e-05
0.0019758
-9.27702e-05
0.00211281
-0.000136811
0.00230051
-0.0001875
0.0025399
-0.000239178
0.00282001
-0.000279897
0.00310396
-0.000283726
0.00330317
-0.000198995
0.00324009
6.33138e-05
0.00269943
0.000540886
0.00147095
0.00122868
0.00147105
0.000403614
-0.000717579
0.00108944
-0.00115723
0.00175262
-0.00107903
0.0022733
-0.000814039
0.00263661
-0.000539943
0.00287417
-0.000332302
0.00303086
-0.000209133
0.00314817
-0.000160981
0.00325742
-0.000168892
0.0033785
-0.000213643
0.00352073
-0.000278837
0.00368283
-0.000349389
0.00384983
-0.000405964
0.00398572
-0.00041556
0.0040215
-0.000319276
0.00384741
-2.46794e-05
0.00332384
0.000587117
0.00230955
0.00155541
0.000936014
0.00260241
0.00240717
0.000403677
-0.00112121
0.00106727
-0.00182069
0.00170479
-0.00171637
0.00220857
-0.00131761
0.00256733
-0.000898482
0.00280973
-0.000574467
0.00297341
-0.000372581
0.00309096
-0.000278302
0.00318525
-0.000262952
0.00326914
-0.000297307
0.0033463
-0.000355756
0.00341081
-0.000413667
0.00344431
-0.000439227
0.00341054
-0.000381544
0.0032508
-0.000159295
0.00288696
0.000339411
0.00226316
0.00121117
0.00138898
0.00242982
0.000472105
0.00351949
0.00287937
0.000356968
-0.00147812
0.00090871
-0.00237228
0.00140539
-0.00221284
0.00177277
-0.00168474
0.00201895
-0.0011444
0.00217747
-0.000732729
0.00228063
-0.000475484
0.00235081
-0.000348224
0.00240045
-0.00031233
0.00243478
-0.000331384
0.00245399
-0.000374712
0.00245293
-0.000412355
0.00241812
-0.000404154
0.0023232
-0.000286367
0.00212811
3.60598e-05
0.00179255
0.000675237
0.00129991
0.00170407
0.000703732
0.00302625
0.000182106
0.00404132
0.00306156
0.000285208
-0.00176327
0.000668786
-0.00275569
0.000960962
-0.00250478
0.00113627
-0.00185978
0.00122769
-0.00123555
0.00127296
-0.000777717
0.00129638
-0.000498636
0.00130859
-0.000360168
0.00131212
-0.000315589
0.00130659
-0.000325594
0.001291
-0.000358859
0.0012624
-0.000383493
0.00121232
-0.000353813
0.00112339
-0.000197163
0.00097041
0.00018931
0.000737438
0.000908485
0.00043539
0.00200639
0.000136352
0.00332554
-3.04758e-05
0.00420835
0.00303117
0.000184363
-0.00194756
0.000339059
-0.0029102
0.000372394
-0.00253787
0.000322538
-0.00180965
0.000244299
-0.00115703
0.00017018
-0.000703325
0.00010988
-0.000438068
6.09492e-05
-0.000310973
1.81769e-05
-0.000272555
-2.19712e-05
-0.000285186
-6.14859e-05
-0.000319085
-0.000103437
-0.000341281
-0.000154374
-0.000302612
-0.000223408
-0.000127859
-0.000314167
0.000280346
-0.000413863
0.00100846
-0.000479696
0.0020725
-0.000438593
0.00328469
-0.000238861
0.00400881
0.00279238
1.8966e-05
-0.00196645
-0.000139081
-0.00275195
-0.000422555
-0.00225414
-0.000724319
-0.00150762
-0.000981737
-0.000899347
-0.00117967
-0.000505127
-0.00132751
-0.00028997
-0.00144042
-0.000197811
-0.00153057
-0.000182156
-0.00160571
-0.000209794
-0.00167095
-0.000253593
-0.00173018
-0.000281791
-0.00178454
-0.000248001
-0.00182626
-8.58789e-05
-0.00182705
0.0002814
-0.00173938
0.000921063
-0.00149876
0.00183214
-0.00105421
0.00284037
-0.000452047
0.00340682
0.0023404
-0.000247872
-0.0017185
-0.000837043
-0.00216258
-0.00148965
-0.00160128
-0.0020439
-0.000953105
-0.00245722
-0.00048577
-0.00274748
-0.000214617
-0.00295011
-8.7093e-05
-0.00309654
-5.11418e-05
-0.00321015
-6.8306e-05
-0.00330663
-0.000113074
-0.00339422
-0.000165771
-0.00347271
-0.000203073
-0.0035288
-0.000191675
-0.0035286
-8.58488e-05
-0.00341411
0.000167149
-0.00310832
0.0006155
-0.00253698
0.00126103
-0.00167862
0.00198221
-0.00067212
0.00240047
0.00166834
-0.000664081
-0.00105432
-0.00175403
-0.00107242
-0.00270241
-0.000652649
-0.00335756
-0.0002977
-0.00375682
-8.62563e-05
-0.00398177
1.05751e-05
-0.00411448
4.58474e-05
-0.00420204
3.66441e-05
-0.00427662
6.49304e-06
-0.00435934
-3.01475e-05
-0.00445553
-6.93862e-05
-0.0045574
-0.000100999
-0.00463753
-0.000111357
-0.00464201
-8.11865e-05
-0.00449182
1.71495e-05
-0.00407849
0.000202344
-0.00331036
0.000493076
-0.00217059
0.000842601
-0.000853026
0.00108302
0.000815368
-0.00105422
-0.00212643
-0.00277884
-0.00307629
-0.0031623
-0.0031515
-0.00310544
-0.00306859
-0.0030619
-0.00309186
-0.00316108
-0.00326191
-0.00337312
-0.00345416
-0.00343687
-0.0032344
-0.00274121
-0.0018985
-0.000815402
)
;

boundaryField
{
    leftWall
    {
        type            calculated;
        value           nonuniform List<scalar> 10(0 0 5.42101e-20 0 0 0 0 -4.33681e-19 0 0);
    }
    rightWall
    {
        type            calculated;
        value           nonuniform List<scalar> 10(0 0 0 0 0 0 0 -4.33681e-19 0 0);
    }
    topWall
    {
        type            calculated;
        value           uniform 0;
    }
    bottomWall
    {
        type            calculated;
        value           uniform 0;
    }
    frontAndBackPlanes
    {
        type            empty;
    }
}


// ************************************************************************* //
