/*--------------------------------*- C++ -*----------------------------------*\
| =========                 |                                                 |
| \\      /  F ield         | OpenFOAM: The Open Source CFD Toolbox           |
|  \\    /   O peration     | Version:  2506                                  |
|   \\  /    A nd           | Website:  www.openfoam.com                      |
|    \\/     M anipulation  |                                                 |
\*---------------------------------------------------------------------------*/
FoamFile
{
    version     2.0;
    format      ascii;
    arch        "LSB;label=32;scalar=64";
    class       volVectorField;
    location    "106";
    object      U;
}
// * * * * * * * * * * * * * * * * * * * * * * * * * * * * * * * * * * * * * //

dimensions      [0 1 -1 0 0 0 0];

internalField   nonuniform List<vector> 
200
(
(0.000387634 -0.00105761 0)
(0.00210745 -0.00136664 0)
(0.00399548 -0.00102352 0)
(0.00553587 -0.000574591 0)
(0.00651874 -0.000225652 0)
(0.00705973 -2.49022e-05 0)
(0.0073368 4.22945e-05 0)
(0.00751217 1.08518e-05 0)
(0.00770969 -8.59476e-05 0)
(0.00801572 -0.000225894 0)
(0.00848786 -0.000399367 0)
(0.00916387 -0.000605115 0)
(0.0100642 -0.000840529 0)
(0.0111794 -0.00108427 0)
(0.0124268 -0.0012658 0)
(0.0135523 -0.00121134 0)
(0.0139834 -0.00056036 0)
(0.0128223 0.00122593 0)
(0.00916283 0.00422841 0)
(0.00275772 0.0058524 0)
(0.000475567 -0.0042787 0)
(0.00308644 -0.0067351 0)
(0.00598563 -0.00613656 0)
(0.00851958 -0.004491 0)
(0.0103738 -0.00284548 0)
(0.0115988 -0.00164106 0)
(0.0123809 -0.000974162 0)
(0.0129163 -0.000778445 0)
(0.0133626 -0.000934969 0)
(0.0138279 -0.00132924 0)
(0.0143729 -0.00187037 0)
(0.0150157 -0.00248104 0)
(0.015727 -0.00306094 0)
(0.0164083 -0.00342162 0)
(0.0168535 -0.0031921 0)
(0.016696 -0.00171326 0)
(0.0153427 0.00197253 0)
(0.0121402 0.00856318 0)
(0.00705322 0.016551 0)
(0.00120096 0.0167995 0)
(0.000473952 -0.00771608 0)
(0.00305437 -0.012553 0)
(0.00584383 -0.0118473 0)
(0.00828285 -0.009084 0)
(0.0100933 -0.00616463 0)
(0.0113242 -0.00390837 0)
(0.0121381 -0.00252039 0)
(0.0126959 -0.00191054 0)
(0.0131182 -0.00188271 0)
(0.0134803 -0.0022321 0)
(0.0138164 -0.00277803 0)
(0.0141232 -0.00334811 0)
(0.0143537 -0.00372126 0)
(0.0143998 -0.00353548 0)
(0.0140655 -0.00218198 0)
(0.0130312 0.00124105 0)
(0.0109905 0.00763285 0)
(0.00779123 0.0170694 0)
(0.00386181 0.0262617 0)
(0.000446876 0.0226355 0)
(0.000431956 -0.0109418 0)
(0.00266114 -0.017767 0)
(0.00490169 -0.0167578 0)
(0.00674114 -0.012894 0)
(0.00802124 -0.0088395 0)
(0.00884223 -0.00569963 0)
(0.00936171 -0.00372005 0)
(0.00970378 -0.00275091 0)
(0.00994254 -0.00251285 0)
(0.0101133 -0.00272618 0)
(0.0102266 -0.00314767 0)
(0.0102732 -0.00354099 0)
(0.0102172 -0.00359763 0)
(0.00997889 -0.00282918 0)
(0.00941498 -0.000482056 0)
(0.00832513 0.00439271 0)
(0.00658376 0.0125127 0)
(0.00421494 0.0233405 0)
(0.00169515 0.0322681 0)
(7.32412e-05 0.025287 0)
(0.000371336 -0.013665 0)
(0.00205629 -0.0217687 0)
(0.00348623 -0.0201589 0)
(0.00446627 -0.0152452 0)
(0.00500678 -0.0103035 0)
(0.00526794 -0.00658008 0)
(0.0053926 -0.00426272 0)
(0.00545721 -0.00309838 0)
(0.00548644 -0.00272666 0)
(0.00548163 -0.00282328 0)
(0.00543908 -0.00312232 0)
(0.00535215 -0.00336054 0)
(0.00520001 -0.00317393 0)
(0.00492992 -0.00198304 0)
(0.00443593 0.00105541 0)
(0.00363135 0.00684996 0)
(0.00248389 0.0159163 0)
(0.00114369 0.0271601 0)
(2.34135e-05 0.0351805 0)
(-0.000172009 0.0258867 0)
(0.000284984 -0.0156891 0)
(0.00120305 -0.0241492 0)
(0.00156909 -0.0216489 0)
(0.00149998 -0.0158519 0)
(0.00120196 -0.0103917 0)
(0.0008644 -0.00646379 0)
(0.00057712 -0.00410333 0)
(0.00035017 -0.00293863 0)
(0.000161774 -0.00255646 0)
(-8.91775e-06 -0.00262672 0)
(-0.000173047 -0.00288957 0)
(-0.000339969 -0.00306922 0)
(-0.000529579 -0.00275839 0)
(-0.000776474 -0.00131781 0)
(-0.00112493 0.00211741 0)
(-0.00154867 0.00835231 0)
(-0.00193027 0.0176177 0)
(-0.00202159 0.0283854 0)
(-0.00155722 0.0351104 0)
(-0.000365332 0.0247767 0)
(0.000154114 -0.0166363 0)
(-7.39549e-05 -0.0243156 0)
(-0.00111852 -0.0207195 0)
(-0.00241751 -0.0144124 0)
(-0.00361744 -0.00897678 0)
(-0.00457265 -0.005306 0)
(-0.00528578 -0.00321441 0)
(-0.0058186 -0.00224596 0)
(-0.00623323 -0.00198806 0)
(-0.00657227 -0.00213674 0)
(-0.00686231 -0.00244658 0)
(-0.00712357 -0.00263473 0)
(-0.0073713 -0.00228287 0)
(-0.00759726 -0.000779806 0)
(-0.00772989 0.00262406 0)
(-0.00759131 0.00855396 0)
(-0.00692533 0.0170311 0)
(-0.00547752 0.0264675 0)
(-0.00326129 0.0318309 0)
(-0.000597492 0.0219014 0)
(-0.000169954 -0.0158046 0)
(-0.00214713 -0.0212918 0)
(-0.00489889 -0.0167798 0)
(-0.00751083 -0.0107143 0)
(-0.00954991 -0.00601491 0)
(-0.0109986 -0.00310472 0)
(-0.011998 -0.00160539 0)
(-0.0127018 -0.00104412 0)
(-0.0132275 -0.00105066 0)
(-0.0136567 -0.00136585 0)
(-0.0140402 -0.00177928 0)
(-0.0143988 -0.00204355 0)
(-0.0147115 -0.00180722 0)
(-0.0148869 -0.000589997 0)
(-0.0147145 0.00216354 0)
(-0.0138886 0.00691256 0)
(-0.0120547 0.0136202 0)
(-0.00899547 0.0209842 0)
(-0.00500342 0.0250592 0)
(-0.000846976 0.0171618 0)
(-0.000797579 -0.0120728 0)
(-0.00511979 -0.014189 0)
(-0.00951902 -0.00965994 0)
(-0.0129319 -0.00503792 0)
(-0.0151052 -0.00198499 0)
(-0.0163445 -0.000403787 0)
(-0.0170325 0.00018412 0)
(-0.0174521 0.000196922 0)
(-0.0177698 -9.75507e-05 0)
(-0.0180898 -0.000537966 0)
(-0.0184684 -0.001001 0)
(-0.0189053 -0.00134606 0)
(-0.0193332 -0.00137291 0)
(-0.0195899 -0.000804018 0)
(-0.0193801 0.000700161 0)
(-0.0182684 0.00347195 0)
(-0.015793 0.00755536 0)
(-0.0116999 0.0122138 0)
(-0.00642513 0.0150638 0)
(-0.00108902 0.0106536 0)
(-0.00192905 -0.00412134 0)
(-0.00688697 -0.00368227 0)
(-0.010517 -0.00177396 0)
(-0.0125014 -0.000397429 0)
(-0.0132308 0.000272953 0)
(-0.0133081 0.000484463 0)
(-0.0131363 0.000456784 0)
(-0.0129342 0.00033205 0)
(-0.0128279 0.000172685 0)
(-0.0128736 -7.99206e-07 0)
(-0.0130882 -0.000175951 0)
(-0.013463 -0.000338713 0)
(-0.0139433 -0.000461402 0)
(-0.0144026 -0.000491659 0)
(-0.0146104 -0.000340326 0)
(-0.0142223 0.000132758 0)
(-0.0127779 0.00104716 0)
(-0.00990082 0.00235184 0)
(-0.00580147 0.00350489 0)
(-0.00138242 0.00296975 0)
)
;

boundaryField
{
    leftWall
    {
        type            fixedValue;
        value           uniform (0 0 0);
    }
    rightWall
    {
        type            fixedValue;
        value           uniform (0 0 0);
    }
    topWall
    {
        type            fixedValue;
        value           uniform (0 0 0);
    }
    bottomWall
    {
        type            fixedValue;
        value           uniform (0 0 0);
    }
    frontAndBackPlanes
    {
        type            empty;
    }
}


// ************************************************************************* //
