/*--------------------------------*- C++ -*----------------------------------*\
| =========                 |                                                 |
| \\      /  F ield         | OpenFOAM: The Open Source CFD Toolbox           |
|  \\    /   O peration     | Version:  2506                                  |
|   \\  /    A nd           | Website:  www.openfoam.com                      |
|    \\/     M anipulation  |                                                 |
\*---------------------------------------------------------------------------*/
FoamFile
{
    version     2.0;
    format      ascii;
    arch        "LSB;label=32;scalar=64";
    class       volScalarField;
    location    "51";
    object      T;
}
// * * * * * * * * * * * * * * * * * * * * * * * * * * * * * * * * * * * * * //

dimensions      [0 0 0 1 0 0 0];

internalField   nonuniform List<scalar> 
200
(
273.151
273.152
273.153
273.154
273.154
273.155
273.155
273.155
273.155
273.155
273.155
273.155
273.155
273.157
273.159
273.167
273.19
273.253
273.417
273.799
273.153
273.158
273.162
273.165
273.167
273.168
273.168
273.168
273.168
273.168
273.168
273.168
273.168
273.168
273.168
273.173
273.192
273.255
273.43
273.823
273.156
273.169
273.179
273.187
273.191
273.194
273.194
273.194
273.194
273.193
273.192
273.191
273.189
273.186
273.184
273.186
273.207
273.276
273.463
273.854
273.162
273.186
273.205
273.219
273.226
273.23
273.23
273.23
273.228
273.227
273.224
273.221
273.216
273.209
273.203
273.204
273.227
273.305
273.502
273.883
273.17
273.208
273.238
273.258
273.269
273.274
273.275
273.273
273.271
273.267
273.264
273.258
273.249
273.238
273.227
273.227
273.255
273.343
273.547
273.912
273.179
273.233
273.276
273.304
273.319
273.325
273.325
273.323
273.321
273.318
273.314
273.306
273.295
273.28
273.266
273.269
273.305
273.403
273.606
273.938
273.189
273.263
273.32
273.356
273.375
273.382
273.384
273.385
273.385
273.385
273.383
273.377
273.368
273.357
273.35
273.358
273.397
273.491
273.673
273.964
273.202
273.297
273.367
273.411
273.435
273.448
273.457
273.465
273.473
273.479
273.483
273.485
273.484
273.482
273.482
273.493
273.527
273.606
273.754
273.993
273.216
273.33
273.412
273.465
273.499
273.523
273.543
273.56
273.576
273.591
273.604
273.616
273.627
273.637
273.646
273.659
273.688
273.746
273.853
274.03
273.226
273.349
273.436
273.495
273.536
273.568
273.595
273.619
273.642
273.664
273.687
273.709
273.731
273.754
273.776
273.8
273.831
273.878
273.952
274.067
)
;

boundaryField
{
    leftWall
    {
        type            fixedValue;
        value           uniform 273.15;
    }
    rightWall
    {
        type            customNeumannDirichletCoupledBoundary;
        refValue        nonuniform List<scalar> 10(274.126 274.127 274.128 274.13 274.132 274.134 274.136 274.138 274.14 274.142);
        refGradient     uniform 0;
        valueFraction   uniform 1;
        source          uniform 0;
        value           nonuniform List<scalar> 10(274.126 274.127 274.128 274.13 274.132 274.134 274.136 274.138 274.14 274.142);
        kappaMethod     fluidThermo;
    }
    topWall
    {
        type            zeroGradient;
    }
    bottomWall
    {
        type            zeroGradient;
    }
    frontAndBackPlanes
    {
        type            empty;
    }
}


// ************************************************************************* //
