/*--------------------------------*- C++ -*----------------------------------*\
| =========                 |                                                 |
| \\      /  F ield         | OpenFOAM: The Open Source CFD Toolbox           |
|  \\    /   O peration     | Version:  2506                                  |
|   \\  /    A nd           | Website:  www.openfoam.com                      |
|    \\/     M anipulation  |                                                 |
\*---------------------------------------------------------------------------*/
FoamFile
{
    version     2.0;
    format      ascii;
    arch        "LSB;label=32;scalar=64";
    class       surfaceScalarField;
    location    "98.6";
    object      phi;
}
// * * * * * * * * * * * * * * * * * * * * * * * * * * * * * * * * * * * * * //

dimensions      [1 0 -1 0 0 0 0];

oriented        oriented;

internalField   nonuniform List<scalar> 
370
(
0.000243073
-0.000288473
0.000681901
-0.000438752
0.00107448
-0.000392467
0.00135716
-0.000282542
0.00153348
-0.00017617
0.00163466
-0.000101014
0.00169712
-6.22821e-05
0.0017522
-5.49012e-05
0.00182345
-7.10497e-05
0.00192727
-0.000103626
0.00207484
-0.000147363
0.00227311
-0.00019806
0.0025234
-0.000250073
0.0028149
-0.000291281
0.00311054
-0.00029541
0.00332113
-0.000210354
0.00326564
5.57153e-05
0.00272748
0.000538393
0.00149036
0.00123733
0.00149047
0.000379582
-0.000668015
0.00103057
-0.00108963
0.00166649
-0.00102824
0.00217239
-0.00078827
0.00253231
-0.000535893
0.00277475
-0.000343257
0.00294139
-0.000228711
0.00307118
-0.000184489
0.00319386
-0.000193515
0.00332857
-0.000238116
0.00348439
-0.000302959
0.00366005
-0.000373499
0.00384066
-0.000430445
0.00399
-0.00044039
0.00403837
-0.000343535
0.00387362
-4.53654e-05
0.00335578
0.000573805
0.00233731
0.0015571
0.000949598
0.00262526
0.00244017
0.000389279
-0.00105724
0.00103343
-0.00173364
0.00165728
-0.00165189
0.00215545
-0.00128621
0.00251529
-0.000895484
0.00276317
-0.000590887
0.00293475
-0.000400045
0.00306127
-0.000310757
0.00316483
-0.000296824
0.00325797
-0.000331004
0.00334428
-0.000389019
0.00341792
-0.000446884
0.00346051
-0.00047278
0.00343554
-0.00041515
0.00328354
-0.000191273
0.00292441
0.000314031
0.00229869
0.0011998
0.00141509
0.00244096
0.000483123
0.00355744
0.0029234
0.000351409
-0.00140859
0.000899362
-0.00228142
0.00139751
-0.00214981
0.00177037
-0.0016588
0.00202371
-0.00114855
0.00218931
-0.0007562
0.00229859
-0.000509037
0.00237377
-0.000385654
0.0024275
-0.000350281
0.00246536
-0.000368584
0.00248781
-0.000411192
0.00248996
-0.000448749
0.00245841
-0.000440948
0.00236645
-0.000322913
0.00217406
1.41244e-06
0.00183664
0.00065174
0.00133722
0.0016995
0.000728563
0.00304989
0.000191426
0.0040948
0.00311492
0.000286912
-0.00169543
0.000679422
-0.00267375
0.000984743
-0.00245487
0.00117319
-0.00184696
0.00127505
-0.0012501
0.00132708
-0.000807931
0.00135396
-0.000535621
0.00136723
-0.000398629
0.00137034
-0.0003531
0.00136362
-0.000361568
0.00134648
-0.000393765
0.00131636
-0.000418339
0.00126492
-0.000389214
0.0011746
-0.000232297
0.00101798
0.000158343
0.000779962
0.000890059
0.000468821
0.00201094
0.000156884
0.00336211
-2.31159e-05
0.00427502
0.00309189
0.000190986
-0.00188634
0.000363402
-0.00284596
0.000416119
-0.00250731
0.000381571
-0.0018121
0.000312624
-0.00118084
0.000242398
-0.000737401
0.000182135
-0.000475061
0.00013089
-0.000347092
8.45534e-05
-0.000306474
4.02834e-05
-0.00031701
-3.51955e-06
-0.000349674
-4.9806e-05
-0.000371764
-0.000105224
-0.000333503
-0.000179353
-0.000157868
-0.000276689
0.000255989
-0.000384461
0.000998144
-0.000459891
0.00208668
-0.000428902
0.00333139
-0.000237164
0.00408349
0.00285481
2.99161e-05
-0.00191618
-0.000108331
-0.00270749
-0.000372842
-0.00224252
-0.000662324
-0.00152232
-0.000914673
-0.000928194
-0.00111291
-0.000538867
-0.00126434
-0.000323353
-0.00138256
-0.000228586
-0.0014788
-0.000209954
-0.00156024
-0.000235282
-0.00163177
-0.00027787
-0.00169741
-0.000305843
-0.00175871
-0.000271921
-0.00180831
-0.000107977
-0.0018179
0.000265876
-0.00173852
0.00091907
-0.00150399
0.00185243
-0.00106161
0.00288927
-0.000456844
0.00347892
0.00239804
-0.000236113
-0.00167997
-0.000806216
-0.00213716
-0.00144511
-0.00160334
-0.00199407
-0.000973072
-0.00240901
-0.000512964
-0.00270505
-0.000242541
-0.00291577
-0.000112358
-0.00307123
-7.28651e-05
-0.00319395
-8.69612e-05
-0.00329943
-0.000129542
-0.0033958
-0.000181242
-0.00348306
-0.000218321
-0.00354811
-0.000206611
-0.00355684
-9.89829e-05
-0.00344992
0.000159213
-0.00314814
0.000617552
-0.00257489
0.00127942
-0.00170708
0.00202168
-0.000684931
0.00245694
0.00171318
-0.000648835
-0.00103103
-0.00172223
-0.00106353
-0.002666
-0.000659295
-0.0033271
-0.000311691
-0.00373872
-0.000101063
-0.00397613
-4.85976e-06
-0.00412207
3.38435e-05
-0.00422195
2.7267e-05
-0.00430706
-1.6136e-06
-0.00440014
-3.62343e-05
-0.00450601
-7.51417e-05
-0.00461732
-0.000106795
-0.00470648
-0.000117237
-0.00471867
-8.65866e-05
-0.00457331
1.40558e-05
-0.0041587
0.000203138
-0.00338045
0.000501374
-0.00221992
0.000861323
-0.000873858
0.00111101
0.000839377
-0.00103092
-0.00209422
-0.00275324
-0.00306465
-0.00316544
-0.00317004
-0.00313596
-0.00310846
-0.00310986
-0.00314589
-0.00322084
-0.00332745
-0.00344452
-0.00353094
-0.00351674
-0.00331346
-0.00281195
-0.00195051
-0.000839415
)
;

boundaryField
{
    leftWall
    {
        type            calculated;
        value           nonuniform List<scalar> 10(0 0 0 1.0842e-19 0 2.1684e-19 0 0 0 0);
    }
    rightWall
    {
        type            calculated;
        value           nonuniform List<scalar> 10(0 0 0 -4.33681e-19 0 0 4.33681e-19 -4.33681e-19 0 0);
    }
    topWall
    {
        type            calculated;
        value           uniform 0;
    }
    bottomWall
    {
        type            calculated;
        value           uniform 0;
    }
    frontAndBackPlanes
    {
        type            empty;
    }
}


// ************************************************************************* //
