/*--------------------------------*- C++ -*----------------------------------*\
| =========                 |                                                 |
| \\      /  F ield         | OpenFOAM: The Open Source CFD Toolbox           |
|  \\    /   O peration     | Version:  2506                                  |
|   \\  /    A nd           | Website:  www.openfoam.com                      |
|    \\/     M anipulation  |                                                 |
\*---------------------------------------------------------------------------*/
FoamFile
{
    version     2.0;
    format      ascii;
    arch        "LSB;label=32;scalar=64";
    class       surfaceScalarField;
    location    "35";
    object      phi;
}
// * * * * * * * * * * * * * * * * * * * * * * * * * * * * * * * * * * * * * //

dimensions      [1 0 -1 0 0 0 0];

oriented        oriented;

internalField   nonuniform List<scalar> 
370
(
-4.56332e-05
-5.41751e-05
9.81508e-05
-0.000143776
0.000315759
-0.000217595
0.000583163
-0.000267385
0.000871514
-0.000288328
0.00115871
-0.000287175
0.00143267
-0.00027393
0.00169062
-0.000257924
0.00193707
-0.000246421
0.00218122
-0.000244124
0.00243422
-0.000252977
0.00270598
-0.000271738
0.00300021
-0.000294211
0.0033072
-0.000306971
0.00359066
-0.000283442
0.0037619
-0.000171217
0.00365076
0.000111167
0.00302792
0.000622883
0.00166143
0.00136653
0.00166147
0.000116323
-0.000170489
0.000440513
-0.000467937
0.000905156
-0.000682188
0.00144064
-0.000802795
0.00199242
-0.000840019
0.00252325
-0.000817909
0.00301293
-0.000763506
0.00345503
-0.000699924
0.00385206
-0.000643347
0.00421022
-0.000602186
0.00453411
-0.000576774
0.00482089
-0.000558427
0.00505381
-0.000527052
0.00519356
-0.000446636
0.00516801
-0.000257829
0.00486577
0.000131088
0.00414439
0.00083263
0.00286507
0.0019023
0.0011713
0.00306041
0.00283283
0.000202162
-0.000372628
0.00066932
-0.000935018
0.00127971
-0.00129244
0.00193269
-0.00145558
0.00256015
-0.00146726
0.00312487
-0.00138238
0.00361319
-0.00125157
0.00402625
-0.00111273
0.00437198
-0.000988832
0.00465847
-0.000888442
0.00488825
-0.000806335
0.0050528
-0.000722761
0.0051268
-0.00060086
0.00506282
-0.000382484
0.00478982
1.53169e-05
0.00422361
0.000697439
0.00330377
0.00175261
0.00205393
0.0031523
0.00073404
0.00438048
0.00356698
0.000253979
-0.000626556
0.000797844
-0.00147872
0.0014529
-0.00194721
0.00209464
-0.00209693
0.00265366
-0.00202581
0.00310499
-0.00183323
0.00345225
-0.00159836
0.00371289
-0.00137292
0.00390737
-0.00118289
0.00405194
-0.00103261
0.00415354
-0.00090755
0.0042054
-0.000774276
0.00418308
-0.000578215
0.00404247
-0.000241595
0.00372301
0.000335017
0.00317084
0.00124983
0.00236263
0.00256104
0.00136791
0.00414725
0.00043246
0.00531618
0.00399958
0.000276754
-0.000903215
0.000812504
-0.00201416
0.00139246
-0.00252664
0.00188918
-0.00259297
0.00225006
-0.00238594
0.002476
-0.00205842
0.00259596
-0.00171761
0.00264698
-0.00142329
0.00266221
-0.00119752
0.00266472
-0.00103456
0.00266435
-0.000906675
0.0026556
-0.000765051
0.00261575
-0.000537931
0.0025052
-0.000130664
0.00227238
0.000568163
0.00187856
0.00164394
0.00132262
0.00311727
0.00068366
0.00478652
0.000164189
0.00583594
0.00416391
0.000246753
-0.00114981
0.000650508
-0.00241741
0.00100317
-0.00287847
0.00120988
-0.00279866
0.00125621
-0.0024312
0.00118055
-0.00198178
0.00103715
-0.00157332
0.000875488
-0.00126086
0.000730877
-0.00105222
0.000622375
-0.000925424
0.000553851
-0.000837541
0.000515572
-0.00072618
0.000485853
-0.000507653
0.000433684
-7.80014e-05
0.000331269
0.000671003
0.000169122
0.00180649
-2.29593e-05
0.00330975
-0.00016492
0.00492888
-0.000150819
0.00582216
0.00401323
0.000126575
-0.00127614
0.000223618
-0.00251369
0.000166289
-0.00281997
-5.72393e-05
-0.00257377
-0.000397795
-0.00208934
-0.000788648
-0.0015898
-0.00117082
-0.00119021
-0.00150603
-0.000924854
-0.00177658
-0.000780946
-0.00197994
-0.000721332
-0.00212259
-0.00069415
-0.00221429
-0.000633711
-0.00226274
-0.000458455
-0.00226965
-7.03834e-05
-0.00220905
0.000611032
-0.00204973
0.00164773
-0.00173688
0.00299743
-0.00121386
0.00440632
-0.00052488
0.00513352
0.00348848
-0.000128825
-0.00114697
-0.000539768
-0.00210171
-0.00115728
-0.00220094
-0.00186858
-0.00186086
-0.00257127
-0.00138522
-0.00320295
-0.000956956
-0.00373868
-0.000653523
-0.00417898
-0.000483701
-0.00453724
-0.000421866
-0.0048291
-0.000428633
-0.00506414
-0.000458251
-0.00523859
-0.000458383
-0.00532825
-0.000367898
-0.00528161
-0.000116171
-0.00502839
0.000358576
-0.00448777
0.00110779
-0.00359361
0.00210384
-0.0023427
0.00315589
-0.000929839
0.003721
0.00255877
-0.000491292
-0.0006552
-0.00150226
-0.00108943
-0.00265479
-0.00104663
-0.00371497
-0.000798877
-0.00457839
-0.000520231
-0.0052353
-0.000298777
-0.00572594
-0.000161837
-0.0061063
-0.000102453
-0.006427
-0.000100343
-0.00672133
-0.000133531
-0.0069992
-0.000179622
-0.00724255
-0.000214281
-0.0073993
-0.000210407
-0.00737923
-0.000135511
-0.00707062
5.06832e-05
-0.00633266
0.000370477
-0.00506647
0.000838201
-0.0032821
0.00137197
-0.00127865
0.00171786
0.00128024
-0.000654651
-0.00174261
-0.00278724
-0.00358405
-0.00410241
-0.00439963
-0.0045602
-0.00466162
-0.00476112
-0.00489394
-0.00507293
-0.00528664
-0.00549651
-0.0056315
-0.00558031
-0.00520937
-0.00437075
-0.00299844
-0.00128034
)
;

boundaryField
{
    leftWall
    {
        type            calculated;
        value           nonuniform List<scalar> 10(0 -2.11758e-22 0 0 0 0 0 0 0 0);
    }
    rightWall
    {
        type            calculated;
        value           nonuniform List<scalar> 10(0 0 0 0 0 0 0 -8.67362e-19 0 -4.33681e-19);
    }
    topWall
    {
        type            calculated;
        value           uniform 0;
    }
    bottomWall
    {
        type            calculated;
        value           uniform 0;
    }
    frontAndBackPlanes
    {
        type            empty;
    }
}


// ************************************************************************* //
