/*--------------------------------*- C++ -*----------------------------------*\
| =========                 |                                                 |
| \\      /  F ield         | OpenFOAM: The Open Source CFD Toolbox           |
|  \\    /   O peration     | Version:  2506                                  |
|   \\  /    A nd           | Website:  www.openfoam.com                      |
|    \\/     M anipulation  |                                                 |
\*---------------------------------------------------------------------------*/
FoamFile
{
    version     2.0;
    format      ascii;
    arch        "LSB;label=32;scalar=64";
    class       volScalarField;
    location    "3.6";
    object      p;
}
// * * * * * * * * * * * * * * * * * * * * * * * * * * * * * * * * * * * * * //

dimensions      [1 -1 -2 0 0 0 0];

internalField   nonuniform List<scalar> 
200
(
100000
100000
100000
100000
100000
100000
100000
100000
100000
100000
100000
99999.9
99999.9
99999.9
99999.8
99999.8
99999.7
99999.6
99999.4
99999.3
99733.4
99733.4
99733.4
99733.4
99733.4
99733.4
99733.4
99733.3
99733.3
99733.3
99733.3
99733.3
99733.3
99733.2
99733.2
99733.2
99733.1
99733.1
99733
99733
99466.7
99466.7
99466.7
99466.7
99466.7
99466.7
99466.7
99466.7
99466.7
99466.7
99466.6
99466.6
99466.6
99466.6
99466.6
99466.5
99466.5
99466.5
99466.5
99466.5
99200
99200
99200
99200
99200
99200
99200
99200
99200
99200
99200
99200
99199.9
99199.9
99199.9
99199.9
99199.9
99199.9
99199.9
99199.9
98933.3
98933.3
98933.3
98933.3
98933.3
98933.3
98933.3
98933.3
98933.3
98933.3
98933.3
98933.3
98933.3
98933.3
98933.3
98933.2
98933.2
98933.2
98933.2
98933.2
98666.6
98666.6
98666.6
98666.6
98666.6
98666.6
98666.6
98666.6
98666.6
98666.6
98666.6
98666.6
98666.6
98666.6
98666.6
98666.6
98666.6
98666.6
98666.6
98666.6
98399.8
98399.8
98399.8
98399.8
98399.8
98399.8
98399.8
98399.8
98399.8
98399.9
98399.9
98399.9
98399.9
98399.9
98399.9
98399.9
98399.9
98399.9
98399.9
98399.9
98133.1
98133.1
98133.1
98133.1
98133.1
98133.1
98133.1
98133.1
98133.1
98133.1
98133.1
98133.1
98133.2
98133.2
98133.2
98133.2
98133.2
98133.2
98133.2
98133.3
97866.3
97866.3
97866.3
97866.3
97866.3
97866.3
97866.3
97866.3
97866.3
97866.3
97866.4
97866.4
97866.4
97866.4
97866.5
97866.5
97866.6
97866.6
97866.7
97866.7
97599.5
97599.5
97599.5
97599.5
97599.5
97599.5
97599.5
97599.5
97599.5
97599.5
97599.6
97599.6
97599.6
97599.7
97599.7
97599.8
97599.9
97600.1
97600.2
97600.4
)
;

boundaryField
{
    leftWall
    {
        type            zeroGradient;
    }
    rightWall
    {
        type            zeroGradient;
    }
    topWall
    {
        type            zeroGradient;
    }
    bottomWall
    {
        type            zeroGradient;
    }
    frontAndBackPlanes
    {
        type            empty;
    }
}


// ************************************************************************* //
