/*--------------------------------*- C++ -*----------------------------------*\
| =========                 |                                                 |
| \\      /  F ield         | OpenFOAM: The Open Source CFD Toolbox           |
|  \\    /   O peration     | Version:  2506                                  |
|   \\  /    A nd           | Website:  www.openfoam.com                      |
|    \\/     M anipulation  |                                                 |
\*---------------------------------------------------------------------------*/
FoamFile
{
    version     2.0;
    format      ascii;
    arch        "LSB;label=32;scalar=64";
    class       volVectorField;
    location    "40";
    object      U;
}
// * * * * * * * * * * * * * * * * * * * * * * * * * * * * * * * * * * * * * //

dimensions      [0 1 -1 0 0 0 0];

internalField   nonuniform List<vector> 
200
(
(-0.000196943 -0.000164053 0)
(8.30579e-05 -0.000318121 0)
(0.000892721 -0.00038958 0)
(0.0019026 -0.000437808 0)
(0.00293185 -0.000442386 0)
(0.00393786 -0.000420152 0)
(0.0048889 -0.000398913 0)
(0.00578789 -0.000399881 0)
(0.0066664 -0.000437191 0)
(0.00757242 -0.000519809 0)
(0.00855956 -0.000652468 0)
(0.00967662 -0.000834532 0)
(0.0109534 -0.00105516 0)
(0.0123782 -0.00128174 0)
(0.0138555 -0.00143669 0)
(0.0151146 -0.00134771 0)
(0.0155649 -0.000650457 0)
(0.0142753 0.00125425 0)
(0.010252 0.00455189 0)
(0.00309353 0.00651897 0)
(9.61901e-05 -0.000979476 0)
(0.0011017 -0.00239755 0)
(0.00275944 -0.00329046 0)
(0.00472821 -0.00370943 0)
(0.00673741 -0.00375615 0)
(0.00864192 -0.00359537 0)
(0.010385 -0.00337877 0)
(0.0119679 -0.00321807 0)
(0.013425 -0.00318195 0)
(0.014803 -0.00329951 0)
(0.0161412 -0.00356146 0)
(0.0174513 -0.0039131 0)
(0.018694 -0.00423442 0)
(0.0197479 -0.00430114 0)
(0.0203712 -0.00371944 0)
(0.0201611 -0.00183068 0)
(0.0184811 0.00235255 0)
(0.0146211 0.00962722 0)
(0.00855191 0.0185512 0)
(0.00148722 0.0191362 0)
(0.000201244 -0.00244107 0)
(0.00171863 -0.00576548 0)
(0.00390061 -0.00763023 0)
(0.00631858 -0.00829333 0)
(0.00862749 -0.0081512 0)
(0.0106761 -0.00759754 0)
(0.0124349 -0.00694061 0)
(0.0139346 -0.00638178 0)
(0.0152284 -0.00602443 0)
(0.0163671 -0.0058883 0)
(0.0173808 -0.00591493 0)
(0.0182605 -0.00595715 0)
(0.0189377 -0.0057494 0)
(0.0192608 -0.00486035 0)
(0.0189725 -0.00263588 0)
(0.0176728 0.00183186 0)
(0.0149952 0.0094372 0)
(0.0107679 0.0202708 0)
(0.00551759 0.0308335 0)
(0.000719734 0.0268315 0)
(0.000262073 -0.0044726 0)
(0.00205983 -0.00997901 0)
(0.00441389 -0.0126054 0)
(0.00680869 -0.0131389 0)
(0.008885 -0.0124267 0)
(0.0105386 -0.0111748 0)
(0.0118046 -0.00986798 0)
(0.0127694 -0.00878127 0)
(0.0135239 -0.00802459 0)
(0.0141394 -0.00758159 0)
(0.0146546 -0.0073259 0)
(0.0150648 -0.00700921 0)
(0.0153075 -0.00622484 0)
(0.0152457 -0.00436239 0)
(0.0146529 -0.000590409 0)
(0.0132166 0.0060379 0)
(0.0107385 0.0161763 0)
(0.00722547 0.0291403 0)
(0.00330141 0.039739 0)
(0.000320287 0.0313508 0)
(0.000307017 -0.00677319 0)
(0.00213222 -0.0143435 0)
(0.00424892 -0.0173002 0)
(0.00614471 -0.0172285 0)
(0.00752879 -0.0155787 0)
(0.00839577 -0.0134219 0)
(0.00887052 -0.0114052 0)
(0.0091012 -0.00983596 0)
(0.00921107 -0.00878819 0)
(0.00928329 -0.00817976 0)
(0.00935858 -0.00780287 0)
(0.00943396 -0.00730946 0)
(0.00945744 -0.00616589 0)
(0.00931807 -0.00360928 0)
(0.00881665 0.0013254 0)
(0.00775239 0.00954193 0)
(0.00599763 0.021407 0)
(0.00366163 0.0354978 0)
(0.00131178 0.0453979 0)
(7.82002e-06 0.0335685 0)
(0.000310824 -0.00902705 0)
(0.00179465 -0.0181057 0)
(0.00316179 -0.0207726 0)
(0.00404512 -0.019649 0)
(0.00432718 -0.0168616 0)
(0.00414184 -0.013823 0)
(0.0036977 -0.0112698 0)
(0.00317339 -0.00946741 0)
(0.00268621 -0.00840046 0)
(0.00229629 -0.00789334 0)
(0.00201937 -0.00765077 0)
(0.00183537 -0.00723549 0)
(0.0016922 -0.00601193 0)
(0.00150985 -0.00310576 0)
(0.00117115 0.00252534 0)
(0.000618678 0.0117096 0)
(-9.78115e-05 0.0244837 0)
(-0.000752743 0.0387374 0)
(-0.000975103 0.0473992 0)
(-0.000314601 0.0335079 0)
(0.000230301 -0.0106919 0)
(0.000808905 -0.0201692 0)
(0.00078176 -0.0218582 0)
(0.000116528 -0.0194597 0)
(-0.00101551 -0.0156661 0)
(-0.00234766 -0.0120998 0)
(-0.00367068 -0.00943639 0)
(-0.00486027 -0.00779261 0)
(-0.00586707 -0.00701383 0)
(-0.00668993 -0.0068233 0)
(-0.00735251 -0.00685638 0)
(-0.00788792 -0.00662479 0)
(-0.00832432 -0.00546013 0)
(-0.00865997 -0.00249832 0)
(-0.00882525 0.00319638 0)
(-0.008635 0.012237 0)
(-0.0078359 0.0243671 0)
(-0.00618638 0.0373562 0)
(-0.0037192 0.0445462 0)
(-0.000711015 0.0306985 0)
(-1.16154e-05 -0.0108538 0)
(-0.00110381 -0.0190228 0)
(-0.00319508 -0.0191986 0)
(-0.00575536 -0.0158451 0)
(-0.00831216 -0.0117806 0)
(-0.0106096 -0.00841099 0)
(-0.0125682 -0.00617711 0)
(-0.0142091 -0.00502076 0)
(-0.0155973 -0.00468878 0)
(-0.0168039 -0.00486641 0)
(-0.0178811 -0.00519347 0)
(-0.0188424 -0.00522551 0)
(-0.0196374 -0.00439145 0)
(-0.020116 -0.00199636 0)
(-0.0199686 0.00267239 0)
(-0.0187913 0.0100793 0)
(-0.0161964 0.0199663 0)
(-0.0120001 0.0304408 0)
(-0.0066591 0.0360974 0)
(-0.0011471 0.0247534 0)
(-0.00050532 -0.00841215 0)
(-0.00384252 -0.013393 0)
(-0.00810791 -0.0123061 0)
(-0.0122143 -0.0091034 0)
(-0.0155486 -0.00590799 0)
(-0.0180508 -0.00357887 0)
(-0.0199054 -0.00225735 0)
(-0.0213508 -0.00177542 0)
(-0.0225959 -0.00188264 0)
(-0.0237893 -0.00232937 0)
(-0.0250051 -0.00286651 0)
(-0.0262282 -0.00321158 0)
(-0.0273294 -0.00301684 0)
(-0.0280377 -0.0018625 0)
(-0.0279073 0.000713872 0)
(-0.0262985 0.00511825 0)
(-0.0226461 0.0113028 0)
(-0.0167047 0.0181366 0)
(-0.00916384 0.02223 0)
(-0.00157041 0.0157362 0)
(-0.00121292 -0.00267864 0)
(-0.00513109 -0.00350998 0)
(-0.00922837 -0.00268032 0)
(-0.0124688 -0.00154741 0)
(-0.0145399 -0.000653351 0)
(-0.0156957 -0.000112908 0)
(-0.0163069 0.000121534 0)
(-0.016687 0.000136139 0)
(-0.0170591 7.71264e-06 0)
(-0.0175659 -0.000206722 0)
(-0.0182798 -0.000463148 0)
(-0.0191994 -0.000716132 0)
(-0.0202342 -0.00090427 0)
(-0.0211735 -0.000937297 0)
(-0.0216421 -0.000674319 0)
(-0.0211334 0.000105055 0)
(-0.0189898 0.00156667 0)
(-0.0147026 0.00359256 0)
(-0.00862734 0.00533644 0)
(-0.00207849 0.00449872 0)
)
;

boundaryField
{
    leftWall
    {
        type            fixedValue;
        value           uniform (0 0 0);
    }
    rightWall
    {
        type            fixedValue;
        value           uniform (0 0 0);
    }
    topWall
    {
        type            fixedValue;
        value           uniform (0 0 0);
    }
    bottomWall
    {
        type            fixedValue;
        value           uniform (0 0 0);
    }
    frontAndBackPlanes
    {
        type            empty;
    }
}


// ************************************************************************* //
